% Model:              Cav_Hex_Unif_flux_v5.1.2 - Wall Distn.mph
% Version:            COMSOL 5.5.0.359
% Date:               Nov 21 2021, 10:25
% Dimension:          1
% Nodes:              221
% Expressions:        7
% Description:        Line graph
% x                       Height                   Height                   Height                   Height                   Height                   Height                   Height
0                         318.00907880928935       318.0363217759895        318.0988729098152        318.1632319034718        318.23137232647434       318.27289189022116       318.2769025486066
0.10342840044574116       318.01107441709837       317.98700904704657       317.9360681883047        317.8777325229094        317.8003858182859        317.68118725754283       317.46329114164286
0.2068568008914823        318.0130700249074        317.93769631810363       317.7732634667943        317.592233142347         317.36939931009744       317.08948262486456       316.6496797346791
0.3102852013372235        318.01506563271647       317.8883835891607        317.61045874528384       317.3067337617847        316.93841280190895       316.49777799218623       315.83606832771534
0.4137136017829646        318.0170612405255        317.83907086021776       317.44765402377334       317.0212343812223        316.5074262937205        315.90607335950796       315.0224569207516
0.5208099198925301        317.95066004327623       317.6392541822328        317.1391372049625        316.63044762280634       316.0189137542828        315.294638353776         314.37854155482074
0.6279062380020956        317.88425884602697       317.43943750424785       316.8306203861516        316.2396608643903        315.530401214845         314.683203348044         313.7346261888899
0.7350025561116612        317.8178576487777        317.2396208262629        316.5221035673408        315.84887410597435       315.0418886754073        314.071768342312         313.090710822959
0.8420988742212266        317.75145645152844       317.039804148278         316.21358674852996       315.4580873475583        314.55337613596953       313.46033333658005       312.44679545702814
0.9491951923307923        317.6643084725975        316.91851183084066       316.06334091350294       315.26151979131026       314.4084219536856        313.53293796152354       312.9912322800475
1.0562915104403576        317.5771604936665        316.79721951340326       315.9130950784759        315.0649522350622        314.2634677714017        313.6055425864671        313.53566910306677
1.1633878285499235        317.49001251473555       316.67592719596587       315.7628492434489        314.86838467881415       314.1185135891178        313.67814721141065       314.0801059260861
1.270484146659489         317.4028645358046        316.55463487852853       315.6126034084219        314.6718171225661        313.9735594068339        313.7507518363542        314.62454274910544
1.381248382432879         317.48135406129444       317.06097637689606       316.6655336792619        316.4037754243408        316.68762766867906       317.8353837375843        320.3542208518684
1.4920126182062694        317.55984358678427       317.56731787526365       317.7184639501019        318.1357337261155        319.40169593052417       321.92001563881445       326.08389895463125
1.6027768539796599        317.63833311227404       318.07365937363124       318.77139422094194       319.86769202789026       322.1157641923693        326.0046475400445        331.8135770573941
1.7135410897530499        317.71682263776387       318.5800008719988        319.82432449178197       321.59965032966494       324.8298324542144        330.08927944127464       337.54325516015706
1.82733239847553          317.82160040515055       319.03563821284155       320.8338170871209        323.45412843747795       327.69679617535144       334.08560171909687       342.8442215196676
1.94112370719801          317.9263781725373        319.4912755536843        321.8433096824598        325.30860654529096       330.5637598964885        338.08192399691904       348.14518787917814
2.05491501592049          318.031155939924         319.94691289452703       322.8528022777987        327.16308465310397       333.4307236176255        342.0782462747412        353.4461542386886
2.1687063246429705        318.13593370731076       320.4025502353698        323.8622948731376        329.017562760917         336.29768733876256       346.07456855256345       358.74712059819916
2.2824976333654505        318.34669528007777       321.1977000114986        325.51878978392006       331.7460914704658        340.3579842102899        351.5434600026488        365.44471336622576
2.3962889420879305        318.5574568528448        321.9928497876274        327.17528469470255       334.47462018001465       344.4182810818172        357.01235145273426       372.1423061342524
2.5100802508104105        318.76821842561174       322.7879995637562        328.831779605485         337.20314888956347       348.4785779533445        362.48124290281964       378.83989890227906
2.623871559532891         318.97897999837875       323.583149339885         330.48827451626744       339.9316775991123        352.5388748248718        367.9501343529051        385.53749167030566
2.7387102623290205        319.1748509000115        324.25728059706256       331.9910368671218        342.60924278270636       356.5293703317875        373.2188485474773        392.1894294205638
2.85354896512515          319.3707218016442        324.93141185424014       333.4937992179762        345.2868079663005        360.5198658387032        378.4875627420495        398.84136717082185
2.968387667921279         319.56659270327697       325.6055431114177        334.9965615688305        347.96437314989464       364.5103613456189        383.7562769366217        405.4933049210799
3.0832263707174086        319.7624636049097        326.2796743685953        336.49932391968485       350.6419383334887        368.5008568525346        389.0249911311939        412.14524267133805
3.198065073513538         320.15349109591          327.42592373089224       338.67599219679613       354.100828973786         373.3838577700086        395.4287502417041        420.05652212784514
3.3129037763096676        320.5445185869103        328.5721730931891        340.85266047390746       357.5597196140833        378.26685868748257       401.83250935221434       427.9678015843523
3.4277424791057967        320.93554607791066       329.71842245548606       343.02932875101874       361.01861025438063       383.14985960495653       408.2362684627246        435.8790810408594
3.542581181901926         321.32657356891093       330.864671817783         345.20599702813          364.4775008946779        388.03286052243055       414.6400275732348        443.79036049736646
3.6574198846980557        321.66131879339247       331.83179074500424       347.09283494836393       367.4402595495976        392.1820910416022        420.110262700234         450.5281572143755
3.772258587494185         321.996064017874         332.7989096722255        348.9796728685979        370.40301820451737       396.33132156077386       425.5804978272332        457.2659539313845
3.887097290290315         322.33080924235554       333.76602859944677       350.8665107888319        373.36577685943706       400.4805520799455        431.0507329542324        464.0037506483936
4.001935993086445         322.6655544668371        334.733147526668         352.7533487090658        376.32853551435676       404.62978259911716       436.52096808123156       470.7415473654026
4.116774695882574         323.13999263730483       336.0402968260919        355.1619762674197        379.9653999121992        409.56704877534054       442.73541807710006       478.1890590714662
4.231613398678704         323.6144308077726        337.3474461255158        357.57060382577356       383.60226431004156       414.50431495156386       448.94986807296857       485.63657077752976
4.346452101474833         324.08886897824027       338.65459542493966       359.9792313841275        387.239128707884         419.44158112778723       455.164318068837         493.0840824835933
4.461290804270963         324.563307148708         339.96174472436354       362.3878589424814        390.87599310572637       424.37884730401055       461.3787680647055        500.53159418965686
4.576129507067092         325.0467126441755        341.2954341293079        364.75996777600096       394.29924370945025       428.83902872429394       466.82769824097636       506.8912570663525
4.690968209863222         325.5301181396429        342.62912353425236       367.1320766095206        397.7224943131741        433.2992101445773        472.2766284172472        513.2509199430483
4.805806912659351         326.0135236351104        343.96281293919674       369.5041854430402        401.1457449168979        437.75939156486066       477.72555859351803       519.610582819744
4.920645615455481         326.4969291305779        345.2965023441412        371.8762942765598        404.5689955206218        442.21957298514405       483.17448876978887       525.9702456964396
5.03548431825161          326.8910494054551        346.42825807517147       373.93145888117584       407.54766757438705       446.05441111320835       487.8969251872978        531.5921143826725
5.15032302104774          327.28516968033233       347.5600138062018        375.9866234857918        410.5263396281523        449.88924924127275       492.6193616048068        537.2139830689055
5.265161723843869         327.6792899552096        348.6917695372321        378.04178809040786       413.5050116819175        453.72408736933704       497.34179802231574       542.8358517551384
5.380000426639999         328.0734102300868        349.8235252682624        380.09695269502384       416.48368373568275       457.5589254974014        502.0642344398247        548.4577204413713
5.494839129436129         328.6296172152852        351.18051894360747       382.3902109095778        419.7046326741678        461.67028486348096       507.01821163938735       554.1837001497507
5.60967783223226          329.1858242004835        352.53751261895263       384.6834691241317        422.9255816126529        465.7816442295605        511.97218883895005       559.9096798581302
5.724516535028388         329.74203118568187       353.8945062942977        386.97672733868563       426.1465305511379        469.8930035956401        516.9261660385126        565.6356595665096
5.839355237824519         330.29823817088027       355.2514999696428        389.26998555323956       429.36747948962295       474.00436296171966       521.8801432380753        571.3616392748891
5.954193940620647         330.85461113860157       356.6502843509926        391.610289537737         432.60565595202917       478.10996687915434       526.7922028451512        576.957074520146
6.069032643416776         331.41098410632287       358.04906873234233       393.95059352223444       435.8438324144354        482.215570796589         531.7042624522271        582.5525097654029
6.1838713462129045        331.96735707404423       359.4478531136921        396.2908975067319        439.08200887684154       486.3211747140237        536.616322059303         588.1479450106599
6.298710049009033         332.52373004176553       360.8466374950419        398.6312014912293        442.32018533924776       490.4267786314584        541.5283816663789        593.7433802559168
6.4135487518051635        332.89046395976237       361.8247886215621        400.3005667922055        444.66499126824255       493.43548305546506       545.1557931390468        597.978429595913
6.528387454601292         333.2571978777592        362.8029397480824        401.9699320931816        447.0097971972373        496.4441874794717        548.7832046117146        602.213478935909
6.6432261573974225        333.62393179575605       363.7810908746026        403.6392973941578        449.35460312623206       499.45289190347836       552.4106160843826        606.4485282759052
6.758064860193553         333.9906657137529        364.75924200112286       405.30866269513393       451.6994090552268        502.46159632748504       556.0380275570504        610.6835776159014
6.872903562989682         334.4160250662832        365.8618364148222        407.153593914226         454.2782431814284        505.727921802305         559.9408396912366        615.1825489295713
6.987742265785812         334.84138441881356       366.9644308285216        408.9985251333181        456.8570773076301        508.994247277125         563.843651825423         619.6815202432413
7.102580968581942         335.2667437713439        368.06702524222095       410.84345635241016       459.43591143383173       512.260572751945         567.7464639596092        624.1804915569112
7.217419671378071         335.69210312387423       369.1696196559203        412.68838757150223       462.0147455600334        515.526898226765         571.6492760937954        628.6794628705811
7.3322583741742005        336.22170763424094       370.3993164968743        414.65654182610257       464.7112566956856        518.8867680793555        575.6520430903659        633.3362826526641
7.44709707697033          336.7513121446076        371.62901333782827       416.62469608070296       467.40776783133776       522.2466379319461        579.6548100869363        637.993102434747
7.5619357797664595        337.2809166549743        372.8587101787822        418.5928503353033        470.1042789669899        525.6065077845367        583.6575770835067        642.6499222168301
7.676774482562589         337.810521165341         374.08840701973617       420.5610045899037        472.80079010264205       528.9663776371273        587.6603440800772        647.306741998913
7.7916131853587185        338.4525520933406        375.39287730402856       422.47905823510047       475.26413634883187       531.9096401794197        591.059402022231         651.1003936076536
7.906451888154846         339.09458302134027       376.69734758832095       424.3971118802972        477.72748259502174       534.8529027217121        594.4584599643849        654.894045216394
8.021290590950976         339.7366139493399        378.00181787261334       426.31516552549397       480.19082884121156       537.7961652640045        597.8575179065388        658.6876968251345
8.136129293747105         340.3786448773395        379.30628815690574       428.2332191706907        482.6541750874014        540.7394278062969        601.2565758486927        662.4813484338749
8.250967996543235         340.9609148031029        380.5959312615372        430.1101210456896        484.9905369821098        543.5007145064441        604.3956229276929        665.8935962790528
8.365806699339366         341.5431847288663        381.88557436616867       431.98702292068856       487.3268988768182        546.2620012065913        607.5346700066931        669.3058441242306
8.480645402135497         342.12545465462966       383.17521747080013       433.86392479568747       489.6632607715265        549.0232879067385        610.6737170856933        672.7180919694083
8.595484104931627         342.70772458039306       384.4648605754316        435.7408266706864        491.99962266623487       551.7845746068857        613.8127641646935        676.1303398145861
8.710322807727756         343.1143448364321        385.32167932508196       437.0393727663517        493.69752983620344       553.8503054265913        616.2157655397203        678.7912327250366
8.825161510523884         343.5209650924711        386.1784980747323        438.337918862017         495.3954370061721        555.9160362462968        618.6187669147471        681.4521256354869
8.940000213320012         343.9275853485101        387.0353168243827        439.6364649576822        497.09334417614065       557.9817670660024        621.021768289774         684.1130185459374
9.05483891611614          344.33420560454914       387.89213557403303       440.9350110533475        498.7912513461092        560.0474978857079        623.4247696648007        686.7739114563877
9.169677618912269         344.7563913822704        388.83165184092576       442.3507602546082        500.6355396668739        562.2714055515341        625.9838356320229        689.6910133943862
9.284516321708399         345.17857715999173       389.77116810781854       443.7665094558689        502.4798279876386        564.4953132173603        628.5429015992452        692.6081153323847
9.399355024504528         345.60076293771306       390.71068437471126       445.18225865712964       504.32411630840323       566.7192208831865        631.1019675664674        695.5252172703832
9.514193727300658         346.0229487154344        391.650200641604         446.5980078583903        506.1684046291679        568.9431285490127        633.6610335336895        698.4423192083817
9.629032430096787         346.4025954639234        392.4586374995544        447.82108946864275       507.7817702074791        570.8714309914155        635.8303199882104        700.8578335312927
9.743871132892917         346.78224221241237       393.26707435750484       449.04417107889526       509.39513578579033       572.7997334338182        637.9996064427312        703.2733478542038
9.858709835689046         347.1618889609013        394.07551121545526       450.2672526891477        511.00850136410156       574.7280358762209        640.1688928972519        705.688862177115
9.973548538485177         347.5415357093903        394.8839480734057        451.49033429940016       512.6218669424128        576.6563383186237        642.3381793517727        708.104376500026
10.088387241281305        347.99651199068836       395.7821730803137        452.8046152115438        514.3287873701936        578.7084126482569        644.6871603665884        710.7444305006372
10.203225944077435        348.4514882719864        396.68039808722176       454.1188961236875        516.0357077979744        580.76048697789          647.036141381404         713.3844845012485
10.318064646873564        348.9064645532845        397.57862309412974       455.43317703583114       517.7426282257552        582.8125613075232        649.3851223962197        716.0245385018598
10.432903349669692        349.36144083458254       398.4768481010378        456.7474579479748        519.449548653536         584.8646356371563        651.7341034110353        718.664592502471
10.547742052465821        349.8517612528507        399.3807717957212        458.0294338180711        521.0586609722164        586.7727355293456        653.9044387135508        721.0616499610848
10.662580755261951        350.34208167111876       400.2846954904047        459.3114096881674        522.6677732908969        588.680835421535         656.0747740160663        723.4587074196985
10.77741945805808         350.83240208938685       401.1886191850882        460.59338555826366       524.2768856095773        590.5889353137243        658.2451093185817        725.8557648783122
10.89225816085421         351.32272250765493       402.0925428797717        461.87536142835995       525.8859979282578        592.4970352059136        660.4154446210972        728.252822336926
11.00709686365034         351.7265696742692        402.83433978044076       462.9324598012903        527.2473631928575        594.1287508870145        662.2591640866419        730.2952109557101
11.121935566446467        352.1304168408834        403.5761366811099        463.98955817422075       528.6087284574572        595.7604665681154        664.1028835521867        732.3375995744941
11.236774269242595        352.5342640074976        404.31793358177896       465.04665654715114       529.970093722057         597.3921822492164        665.9466030177314        734.3799881932782
11.351612972038724        352.93811117411184       405.05973048244806       466.10375492008154       531.3314589866567        599.0238979303173        667.7903224832761        736.4223768120623
11.466451674834854        353.333746864269         405.813512811412         467.16162659414306       532.6698573442673        600.6004640722897        669.5005912156374        738.2522453018771
11.581290377630985        353.72938255442614       406.5672951403759        468.2194982682046        534.0082557018779        602.177030214262         671.2108599479989        740.082113791692
11.696129080427117        354.1250182445833        407.32107746933985       469.27736994226603       535.3466540594886        603.7535963562343        672.9211286803602        741.9119822815069
11.810967783223246        354.5206539347405        408.0748597983038        470.33524161632755       536.6850524170992        605.3301624982066        674.6313974127215        743.7418507713217
11.925806486019376        354.9273746573875        408.84936254595925       471.4707057660513        538.1462127808556        607.0736898403236        676.5867362982242        745.8415501881727
12.040645188815503        355.33409538003446       409.6238652936147        472.606169915775         539.607373144612         608.8172171824406        678.5420751837269        747.9412496050238
12.155483891611633        355.74081610268144       410.3983680412702        473.7416340654987        541.0685335083684        610.5607445245577        680.4974140692294        750.0409490218749
12.27032259440776         356.1475368253284        411.17287078892565       474.8770982152224        542.5296938721249        612.3042718666746        682.4527529547321        752.140648438726
12.38516129720389         356.5525647643599        411.90799357609          475.9554182063004        543.9072214706537        613.9388359553615        684.2987616800399        754.091546235444
12.500000000000018        356.95759270339136       412.6431163632544        477.03373819737834       545.2847490691825        615.5734000440484        686.1447704053477        756.0424440321619
12.614838702796145        357.3626206424229        413.3782391504188        478.11205818845633       546.6622766677111        617.2079641327352        687.9907791306555        757.99334182888
12.729677405592275        357.76764858145435       414.11336193758314       479.19037817953426       548.0398042662399        618.8425282214221        689.8367878559633        759.944239625598
12.844516108388406        358.10399249400683       414.7374933588686        480.0717981359044        549.1394122910788        620.1411554235098        691.3391231843233        761.6023347090937
12.959354811184536        358.44033640655925       415.3616247801541        480.9532180922745        550.2390203159176        621.4397826255974        692.8414585126834        763.2604297925895
13.074193513980669        358.77668031911173       415.9857562014396        481.83463804864465       551.3386283407565        622.7384098276852        694.3437938410434        764.9185248760853
13.189032216776798        359.11302423166416       416.60988762272507       482.71605800501476       552.4382363655953        624.0370370297729        695.8461291694035        766.576619959581
13.303870919572928        359.55683384141247       417.4321699064275        483.8367106104996        553.7897174609606        625.5424555540169        697.4793550499023        768.2915402858949
13.418709622369056        360.0006434511608        418.25445219013          484.9573632159844        555.1411985563259        627.0478740782607        699.1125809304011        770.0064606122089
13.533548325165185        360.4444530609091        419.07673447383246       486.07801582146925       556.4926796516911        628.5532926025047        700.7458068108999        771.7213809385229
13.648387027961313        360.8882626706574        419.8990167575349        487.1986684269541        557.8441607470563        630.0587111267487        702.3790326913987        773.4363012648369
13.763225730757442        361.27040496630394       420.61418420310974       488.1856493171443        559.0767176353206        631.4968182644596        703.9513095613268        775.0846916575908
13.87806443355357         361.65254726195053       421.32935164868456       489.17263020733446       560.309274523585         632.9349254021706        705.5235864312547        776.7330820503448
13.992903136349698        362.03468955759706       422.0445190942594        490.1596110975247        561.5418314118494        634.3730325398816        707.0958633011826        778.3814724430988
14.107741839145827        362.41683185324365       422.7596865398342        491.1465919877149        562.7743883001137        635.8111396775926        708.6681401711106        780.0298628358528
14.222580541941957        362.93620400575116       423.70809329395615       492.43216132517836       564.3351497059479        637.55276889682          710.5565211394409        781.9846668686985
14.337419244738086        363.4555761582586        424.6565000480781        493.71773066264177       565.895911111782         639.2943981160475        712.4449021077712        783.9394709015443
14.452257947534216        363.9749483107661        425.60490680220005       495.00330000010524       567.4566725176162        641.0360273352751        714.3332830761015        785.8942749343901
14.567096650330345        364.4943204632736        426.553313556322         496.28886933756866       569.0174339234503        642.7776565545025        716.2216640444317        787.8490789672358
14.681935353126475        364.836893381872         427.18404540343136       497.1559431456305        570.0928738162256        644.0358419967654        717.6083773460982        789.3012031768951
14.796774055922604        365.1794663004705        427.8147772505407        498.0230169536923        571.1683137090008        645.2940274390282        718.9950906477649        790.7533273865547
14.911612758718734        365.5220392190689        428.44550909765          498.89009076175415       572.2437536017761        646.5522128812912        720.3818039494315        792.2054515962142
15.026451461514862        365.8646121376674        429.0762409447594        499.757164569816         573.3191934945514        647.8103983235541        721.768517251098         793.6575758058736
15.141290164310991        366.2025166551926        429.6990234064525        500.5811335472034        574.2842782551973        648.8976573122634        722.9449056707435        794.8863429897972
15.256128867107122        366.54042117271774       430.3218058681456        501.40510252459086       575.2493630158432        649.9849163009728        724.1212940903891        796.1151101737207
15.370967569903252        366.87832569024295       430.9445883298387        502.2290715019783        576.2144477764891        651.0721752896823        725.2976825100347        797.3438773576443
15.485806272699381        367.2162302077681        431.56737079153186       503.05304047936573       577.179532537135         652.1594342783917        726.4740709296802        798.5726445415678
15.600644975495511        367.63443348914177       432.30263800955913       504.02644688429456       578.3230114926117        653.4151679774682        727.790207825044         799.9165264073218
15.71548367829164         368.0526367705155        433.0379052275864        504.99985328922344       579.4664904480885        654.6709016765446        729.1063447204078        801.2604082730758
15.830322381087774        368.47084005188924       433.7731724456136        505.97325969415226       580.6099694035652        655.926635375621         730.4224816157715        802.6042901388298
15.945161083883903        368.889043333263         434.5084396636409        506.94666609908114       581.753448359042         657.1823690746975        731.7386185111353        803.9481720045837
16.05999978668003         369.2519297227739        435.1529849799568        507.8131923127224        582.8021965435062        658.363022434937         732.9941152233068        805.2217796999129
16.174838489476162        369.6148161122849        435.7975302962727        508.67971852636356       583.8509447279705        659.5436757951763        734.2496119354785        806.495387395242
16.28967719227229         369.9777025017959        436.4420756125886        509.5462447400048        584.8996929124348        660.7243291554158        735.5051086476501        807.768995090571
16.40451589506842         370.3405888913069        437.08662092890455       510.412770953646         585.948441096899         661.9049825156553        736.7606053598216        809.0426027859002
16.519354597864552        370.79332221546724       437.85982964251434       511.3978306192324        587.0760859118288        663.1241550507369        738.0270431231216        810.3297097386569
16.634193300660684        371.2460555396276        438.6330383561241        512.3828902848189        588.2037307267585        664.3433275858185        739.2934808864215        811.6168166914135
16.74903200345681         371.6987888637879        439.4062470697338        513.3679499504053        589.3313755416882        665.5625001209002        740.5599186497216        812.9039236441703
16.863870706252946        372.1515221879483        440.17945578334354       514.3530096159918        590.4590203566179        666.7816726559818        741.8263564130216        814.191030596927
16.978709409049074        372.43650896507          440.67951882470095       515.0147446715688        591.2312226091166        667.6187891477922        742.6959068158676        815.0708680485974
17.093548111845198        372.7214957421918        441.17958186605847       515.6764797271458        592.0034248616153        668.4559056396026        743.5654572187137        815.9507055002678