% Model:              Cav_Hex_Unif_flux_v5.1.2 - Wall Distn.mph
% Version:            COMSOL 5.5.0.359
% Date:               Nov 21 2021, 10:26
% Dimension:          1
% Nodes:              328
% Expressions:        7
% Description:        Line graph
% x                       Height                   Height                   Height                   Height                   Height                   Height                   Height
0                         513.5881757132689        596.1952338233012        672.836987792424         746.3538899426721        816.645915992928         883.3240613182153        946.0209736047029
0.07645259938837923       513.0662974293143        595.5901268867029        672.1744644977014        745.6447988891118        815.8982784753125        882.5455511088259        945.2188990603433
0.15290519877675846       512.5444191453596        594.9850199501045        671.5119412029786        744.9357078355514        815.1506409576969        881.7670408994363        944.4168245159836
0.2293577981651377        512.022540861405         594.3799130135062        670.849417908256         744.2266167819911        814.4030034400813        880.9885306900469        943.614749971624
0.3058103975535169        511.5378999897946        593.8432424541769        670.2754432020264        743.6227282298431        813.7761473479615        880.3455214588487        942.9623088240947
0.38226299694189614       511.0532591181841        593.3065718948475        669.7014684957967        743.018839677695         813.1492912558414        879.7025122276505        942.3098676765653
0.4587155963302754        510.56861824657364       592.7699013355182        669.1274937895671        742.414951125547         812.5224351637213        879.0595029964522        941.657426529036
0.5351681957186548        510.09413520692374       592.2426583914012        668.5624780592601        741.8205939903796        811.9061767349081        878.4283667699376        941.0182604241207
0.6116207951070343        509.6196521672737        591.715415447284         667.997462328953         741.2262368552122        811.2899183060947        877.7972305434229        940.3790943192053
0.6880733944954137        509.1451691276238        591.188172503167         667.4324465986459        740.6318797200447        810.6736598772814        877.1660943169082        939.7399282142899
0.7645259938837929        508.682463863488         590.6751668033753        666.8861200765966        740.0613324310086        810.0859479111336        876.5679086452427        939.1378649310763
0.840978593272172         508.2197585993522        590.1621611035835        666.3397935545472        739.4907851419725        809.4982359449857        875.969722973577         938.5358016478624
0.9174311926605512        507.75705333521637       589.6491554037916        665.7934670324978        738.9202378529365        808.9105239788378        875.3715373019112        937.9337383646485
0.9938837920489304        507.28716750548966       589.1294517407383        665.2417432884876        738.3448575115992        808.318113326157         874.7688354958836        937.3273913091908
1.0703363914373094        506.81728167576284       588.6097480776851        664.6900195444771        737.7694771702619        807.7257026734761        874.1661336898559        936.721044253733
1.1467889908256887        506.3473958460361        588.0900444146318        664.1382958004667        737.1940968289247        807.1332920207954        873.5634318838282        936.1146971982753
1.2232415902140683        505.8791543699683        587.5746626638639        663.5934957994816        736.6273299437355        806.5509068485717        872.9721544086686        935.5211544968731
1.2996941896024476        505.41091289390044       587.0592809130959        663.0486957984964        736.0605630585462        805.9685216763479        872.380876933509         934.927611795471
1.376146788990827         504.94267141783257       586.543899162328         662.5038957975113        735.4937961733569        805.3861365041241        871.7895994583492        934.3340690940688
1.4525993883792063        504.4640840068854        586.0190947018638        661.9496846143566        734.9171620345427        804.7935532796755        871.1879620544136        933.7300802570117
1.5290519877675854        503.9854965959382        585.4942902413994        661.3954734312017        734.3405278957284        804.2009700552267        870.5863246504776        933.1260914199544
1.6055045871559648        503.506909184991         584.9694857809352        660.841262248047         733.7638937569142        803.6083868307779        869.9846872465417        932.5221025828972
1.681957186544344         503.03835325813657       584.4583031321503        660.3029323575402        733.2049766252417        803.0353891247456        869.4045181727085        931.9414078505881
1.758409785932723         502.5697973312821        583.9471204833652        659.7646024670332        732.646059493569         802.4623914187131        868.8243490988751        931.3607131182788
1.8348623853211024        502.1012414044276        583.4359378345803        659.2262725765264        732.0871423618966        801.8893937126807        868.2441800250418        930.7800183859696
1.911314984709482         501.6290547495001        582.9220025063893        658.6849676951994        731.525139635209         801.3134000470712        867.6612014546727        930.1967206757242
1.9877675840978608        501.15686809457253       582.4080671781982        658.1436628138722        730.9631369085214        800.7374063814617        867.0782228843034        929.6134229654787
2.0642201834862406        500.68468143964503       581.894131850007         657.6023579325451        730.4011341818339        800.1614127158522        866.4952443139342        929.0301252552331
2.1406727828746193        500.21369404792847       581.3830772511749        657.0645851578842        729.8433296310059        799.5903953321977        865.9180403198903        928.4533668619885
2.2171253822629984        499.74270665621185       580.8720226523426        656.5268123832232        729.2855250801776        799.0193779485429        865.3408363258463        927.8766084687437
2.2935779816513775        499.2717192644953        580.3609680535104        655.9890396085622        728.7277205293495        798.4483605648882        864.7636323318025        927.2998500754991
2.3700305810397566        498.80217303381016       579.8527762610688        655.4545816685317        728.1738541260306        797.8820517835146        864.1919415771814        926.7293675915859
2.4464831804281357        498.3326268031249        579.3445844686272        654.920123728501         727.6199877227116        797.3157430021408        863.6202508225601        926.1588851076725
2.522935779816515         497.86308057243974       578.8363926761856        654.3856657884704        727.0661213193926        796.7494342207672        863.0485600679389        925.5884026237593
2.5993883792048944        497.4022082555165        578.3388655915395        653.8632208486606        726.5256701641596        796.1979578616472        862.493046188558         925.0353267822422
2.675840978593274         496.94133593859317       577.8413385068934        653.3407759088506        725.9852190089266        795.6464815025271        861.9375323091768        924.4822509407251
2.7522935779816526        496.48046362166986       577.3438114222473        652.8183309690406        725.4447678536936        795.095005143407         861.3820184297958        923.9291750992079
2.8287461773700318        496.0295349092419        576.8583628435085        652.3094229378596        724.9193779034082        794.5601456867506        860.8446133398859        923.3955820223837
2.905198776758411         495.5786061968139        576.3729142647697        651.8005149066784        724.3939879531227        794.025286230094         860.3072082499758        922.8619889455593
2.9816513761467904        495.1276774843859        575.887465686031         651.2916068754972        723.8685980028373        793.4904267734375        859.7698031600657        922.328395868735
3.0581039755351695        494.68698357147105       575.4138302414127        650.7957906587654        723.3577677035153        792.9716241014429        859.2498665326127        921.8135325034501
3.134556574923549         494.2462896585562        574.9401947967943        650.2999744420334        722.8469374041932        792.452821429448         858.7299299051595        921.298669138165
3.2110091743119282        493.8055957456413        574.4665593521761        649.8041582253015        722.3361071048712        791.9340187574533        858.2099932777062        920.78380577288
3.2874617737003073        493.37325476383427       574.002941766949         649.3197126214192        721.8380104980555        791.4292446294423        857.7052470139716        920.2851355522583
3.363914373088686         492.94091378202717       573.5393241817219        648.8352670175367        721.3399138912397        790.9244705014312        857.2005007502369        919.7864653316365
3.440366972477065         492.5085728002201        573.0757065964948        648.3508214136542        720.841817284424         790.4196963734202        856.6957544865022        919.2877951110147
3.5168195718654447        492.08282243748573       572.6198550298017        647.8750529985077        720.3533521924519        789.9254815631947        856.2024237433006        918.8013067552171
3.5932721712538243        491.6570720747512        572.1640034631084        647.3992845833611        719.8648871004796        789.431266752969         855.709093000099         918.3148183994192
3.669724770642204         491.2313217120168        571.7081518964153        646.9235161682146        719.3764220085073        788.9370519427433        855.2157622568973        917.8283300436215
3.7461773700305834        490.81495903103973       571.2631168066781        646.4600789353168        718.9018878621697        788.45824026662          854.7391239348578        917.3595794520996
3.8226299694189625        490.39859635006263       570.8180817169408        645.9966417024189        718.4273537158319        787.9794285904965        854.2624856128182        916.8908288605777
3.899082568807342         489.98223366908553       570.3730466272036        645.5332044695209        717.9528195694943        787.500616914373         853.7858472907785        916.4220782690559
3.9755351681957216        489.5708974449388        569.9339716899486        645.0765061559957        717.4857830234381        787.0299946322565        853.3180030923397        915.9626146729831
4.051987767584101         489.159561220792         569.4948967526936        644.6198078424704        717.0187464773819        786.5593723501397        852.8501588939008        915.5031510769103
4.12844036697248          488.74822499664526       569.0558218154387        644.1631095289451        716.5517099313257        786.088750068023         852.382314695462         915.0436874808375
4.204892966360859         488.34230771646605       568.623336689663         643.713951698876         716.0931743949363        785.6274847111285        851.9245466480154        914.5948389452006
4.281345565749237         487.93639043628673       568.1908515638872        643.2647938688069        715.634638858547         785.1662193542338        851.4667786005687        914.1459904095635
4.357798165137615         487.53047315610746       567.7583664381116        642.8156360387378        715.1761033221576        784.7049539973392        851.0090105531219        913.6971418739264
4.434250764525995         487.13227601540154       567.3344989405549        642.3760689641978        714.7281713918105        784.2552439301887        850.5636375222977        913.261390767264
4.5107033639143745        486.7340788746955        566.9106314429984        641.9365018896576        714.2802394614635        783.8055338630381        850.1182644914733        912.8256396606014
4.587155963302754         486.3358817339895        566.4867639454417        641.4969348151176        713.8323075311164        783.3558237958875        849.672891460649         912.3898885539389
4.663608562691133         485.9466745997872        566.0732396800475        641.0690420446742        713.3973588790708        782.920288386111         849.2427057668023        911.9701293110778
4.7400611620795114        485.55746746558475       565.6597154146534        640.6411492742308        712.9624102270251        782.4847529763342        848.8125200729554        911.5503700682166
4.81651376146789          485.1682603313824        565.2461911492593        640.2132565037874        712.5274615749794        782.0492175665576        848.3823343791087        911.1306108253553
4.892966360856271         484.78207837386094       564.8359273246737        639.7890572585712        712.096649988789         781.6182164669007        847.9569872662205        910.7158847702281
4.969418960244649         484.39589641633944       564.4256635000879        639.3648580133549        711.6658384025984        781.1872153672435        847.5316401533321        910.3011587151007
5.045871559633029         484.00971445881794       564.0153996755022        638.9406587681387        711.2350268164079        780.7562142675864        847.1062930404437        909.8864326599734
5.122324159021408         483.6327761262322        563.6158312384707        638.5285332591133        710.8175719389417        780.339713628605         846.6964148026649        909.4879530270719
5.198776758409788         483.25583779364644       563.2162628014391        638.1164077500878        710.4001170614755        779.9232129896234        846.2865365648859        909.0894733941702
5.2752293577981675        482.87889946106066       562.8166943644076        637.7042822410623        709.9826621840093        779.5067123506419        845.876658327107         908.6909937612686
5.351681957186548         482.51009189127683       562.4262777482853        637.3025660240141        709.5767609830112        779.1027712010844        845.4801746748428        908.3065452202437
5.428134556574927         482.14128432149295       562.0358611321631        636.9008498069659        709.170859782013         778.6988300515268        845.0836910225786        907.9220966792186
5.504587155963305         481.77247675170906       561.6454445160408        636.4991335899177        708.7649585810149        778.2948889019692        844.6872073703144        907.5376481381936
5.581039755351685         481.41126506699135       561.263662765403         636.1070731502016        708.3696357262318        777.9023176901284        844.3027474499592        907.1657198532736
5.6574923547400635        481.0500533822736        560.8818810147651        635.7150127104853        707.9743128714485        777.5097464782874        843.9182875296038        906.7937915683534
5.733944954128442         480.6888416975558        560.5000992641272        635.3229522707691        707.5789900166654        777.1171752664466        843.5338276092485        906.4218632834333
5.810397553516822         480.33395819244          560.1258731414114        634.9394455417715        707.1930669393435        776.7346960368213        843.159997508681         906.0609372982499
5.886850152905201         479.9790746873241        559.7516470186956        634.555938812774         706.8071438620213        776.3522168071959        842.7861674081134        905.7000113130663
5.96330275229358          479.6241911822082        559.3774208959798        634.1724320837765        706.4212207846994        775.9697375775705        842.4123373075458        905.3390853278828
6.03975535168196          479.2763877016585        559.0111187794888        633.797697178619         706.044858276514         775.5975125026384        842.0493247236462        904.9893846978629
6.116207951070339         478.9285842211088        558.6448166629979        633.4229622734616        705.6684957683285        775.2252874277061        841.6863121397464        904.6396840678428
6.192660550458718         478.5807807405591        558.2785145465069        633.0482273683042        705.292133260143         774.8530623527739        841.3232995558467        904.2899834378228
6.269113149847097         478.2395610292061        557.9194610330766        632.6815960811626        704.924666929036         774.4904001140026        840.970360169743         903.9506981428793
6.345565749235476         477.898341317853         557.5604075196461        632.3149647940211        704.5572005979288        774.127737875231         840.6174207836392        903.6114128479359
6.422018348623855         477.55712160649995       557.2013540062158        631.9483335068795        704.1897342668217        773.7650756364595        840.2644813975355        903.2721275529924
6.498470948012235         477.2213983054091        556.8485153940934        631.5886951846575        703.8299339322142        773.4106115959686        839.9201241697383        902.9416607082618
6.574923547400615         476.88567500431816       556.4956767819709        631.2290568624354        703.4701335976066        773.0561475554775        839.5757669419411        902.6111938635311
6.651376146788993         476.5499517032273        556.1428381698486        630.8694185402134        703.110333262999         772.7016835149865        839.2314097141439        902.2807270188005
6.727828746177373         476.222814205437         555.7994651930014        630.5203703356461        702.7621577655361        772.3597388808039        838.9002753057547        901.9639699323541
6.804281345565752         475.8956767076466        555.4560922161542        630.1713221310788        702.413982268073         772.0177942466213        838.5691408973655        901.6472128459076
6.880733944954131         475.5685392098562        555.112719239307         629.8222739265116        702.06580677061          771.6758496124387        838.2380064889763        901.3304557594611
6.957186544342511         475.2469901127616        554.7758406970598        629.4806091357202        701.7257128598108        771.3425036983829        837.9158120460659        901.0228078024521
7.033639143730889         474.9254410156668        554.4389621548125        629.1389443449289        701.3856189490114        771.009157784327         837.5936176031553        900.7151598454432
7.110091743119269         474.6038919185721        554.1020836125654        628.7972795541375        701.0455250382121        770.6758118702712        837.2714231602447        900.4075118884342
7.1865443425076485        474.2873420382326        553.7708632069167        628.462017862544         700.7124482062742        770.3499515402913        836.9570277714975        900.1078159077344
7.262996941896027         473.9707921578931        553.439642801268         628.1267561709504        700.3793713743363        770.0240912103113        836.6426323827501        899.8081199270346
7.339449541284406         473.6542422775535        553.1084223956193        627.7914944793569        700.0462945423984        769.6982308803314        836.3282369940029        899.5084239463347
7.415902140672786         473.34537550367094       552.7860664705065        627.4661641004916        699.7240030218052        769.3838258885528        836.02577260885          899.2209455078738
7.492354740061165         473.03650872978824       552.4637105453936        627.1408337216262        699.4017115012118        769.0694208967742        835.7233082236971        898.9334670694128
7.568807339449544         472.7276419559056        552.1413546202808        626.815503342761         699.0794199806185        768.7550159049956        835.4208438385443        898.6459886309519
7.645259938837924         472.42569640909454       551.8270329682939        626.4991428857542        698.7668435012243        768.4508939096363        835.1290493477524        898.3693979097554
7.721712538226303         472.1237508622834        551.512711316307         626.1827824287473        698.4542670218301        768.146771914277         834.8372548569602        898.0928071885589
7.798165137614682         471.82180531547226       551.1983896643201        625.8664219717405        698.1416905424359        767.8426499189177        834.545460366168         897.8162164673624
7.874617737003061         471.5274284249277        550.8926689872671        625.5596457773817        697.839488053483         767.5494987645255        834.2650396023972        897.5512155568192
7.95107033639144          471.233051534383         550.5869483102141        625.2528695830229        697.5372855645302        767.2563476101333        833.9846188386264        897.2862146462759
8.02752293577982          470.9386746438383        550.2812276331612        624.946093388664         697.2350830755773        766.9631964557411        833.7041980748556        897.0212137357325
8.1039755351682           470.64885431145734       549.9806566802579        624.6450122274105        696.9390039194323        766.6764831798447        833.4304189774841        896.762951884535
8.180428134556578         470.3590339790763        549.6800857273545        624.3439310661568        696.642924763287         766.3897699039481        833.1566398801126        896.5046900333373
8.256880733944959         470.0692136466953        549.3795147744512        624.0428499049032        696.3468456071419        766.1030566280516        832.8828607827411        896.2464281821397
8.33333333333334          469.78771683933934       549.0886047850817        623.7524838475676        696.0622739671834        765.8284147929389        832.6215075369793        896.0007522394809
8.409785932721718         469.50622003198333       548.7976947957121        623.462117790232         695.7777023272248        765.5537729578261        832.3601542912173        895.7550762968219
8.486238532110095         469.2247232246273        548.5067848063426        623.1717517328964        695.4931306872662        765.2791311227134        832.0988010454555        895.5094003541631
8.562691131498475         468.94880299083354       548.2220862423324        622.8882343416058        695.2159189523703        765.0122198338502        831.8454095875016        895.2717836531579
8.639143730886852         468.67288275703964       547.937387678322         622.6047169503152        694.9387072174743        764.7453085449869        831.5920181295477        895.0341669521525
8.71559633027523          468.3969625232458        547.6526891143117        622.3211995590245        694.6614954825783        764.4783972561236        831.3386266715937        894.7965502511473
8.792048929663611         468.12637886997226       547.3742458150771        622.044604813167         694.3916996533101        764.2192477951694        831.0932117234231        894.5670061889477
8.86850152905199          467.8557952166986        547.0958025158425        621.7680100673094        694.1219038240419        763.9600983342151        830.8477967752524        894.337462126748
8.94495412844037          467.585211563425         546.8173592166079        621.4914153214519        693.8521079947736        763.7009488732609        830.6023818270817        894.1079180645485
9.021406727828749         467.3227777946999        546.5479820516462        621.2248476935627        693.5930846802465        763.4531023740409        830.3685912125576        893.8901192773812
9.097859327217128         467.0603440259747        546.2786048866843        620.9582800656734        693.3340613657194        763.2052558748208        830.1348005980333        893.6723204902139
9.174311926605506         466.79791025724955       546.0092277217226        620.6917124377842        693.0750380511923        762.9574093756007        829.9010099835091        893.4545217030466
9.250764525993885         466.53822442160276       545.7431609042497        620.4287770698436        692.8197687958431        762.7132935940334        829.6708014174694        893.2400457342939
9.327217125382266         466.27853858595586       545.4770940867768        620.1658417019031        692.5644995404937        762.469177812466         829.4405928514295        893.0255697655411
9.403669724770644         466.018852750309         545.2110272693039        619.9029063339625        692.3092302851443        762.2250620308986        829.2103842853898        892.8110937967884
9.480122324159025         465.7641104779588        544.9506390212765        619.6461638319973        692.0604723105193        761.9876228672737        828.9868763036958        892.6032122208856
9.556574923547403         465.5093682056085        544.6902507732491        619.3894213300322        691.8117143358944        761.7501837036486        828.7633683220017        892.3953306449827
9.633027522935784         465.2546259332582        544.4298625252217        619.132678828067         691.5629563612695        761.5127445400237        828.5398603403077        892.1874490690798
9.709480122324162         465.0065081600871        544.1770912168021        618.8841992231603        691.3228802402798        761.2842333739924        828.325367649642         891.9885216480268
9.785932721712541         464.75839038691595       543.9243199083825        618.6357196182535        691.08280411929          761.0557222079609        828.1108749589762        891.7895942269737
9.86238532110092          464.5102726137448        543.6715485999629        618.3872400133467        690.8427279983003        760.8272110419294        827.8963822683104        891.5906668059207
9.938837920489298         464.2668374354934        543.423946720684         618.1443134802975        690.6084766636122        760.6046934551042        827.6879441701457        891.397750805044
10.015290519877677        464.0234022572419        543.1763448414049        617.9013869472482        690.3742253289241        760.3821758682789        827.4795060719808        891.2048348041671
10.091743119266056        463.7799670789904        542.9287429621259        617.6584604141989        690.139973994236         760.1596582814536        827.271067973816         891.0119188032903
10.168195718654436        463.5413454921946        542.6865328461132        617.4212622913158        689.9116178260243        759.943056945417         827.068433512774         890.8245797296747
10.244648318042817        463.3027239053987        542.4443227301005        617.1840641684328        689.6832616578125        759.7264556093802        826.865799051732         890.637240656059
10.321100917431195        463.06410231860286       542.2021126140877        616.9468660455497        689.4549054896007        759.5098542733435        826.66316459069          890.4499015824433
10.397553516819574        462.8315515782432        541.9665521592191        616.71676945392          689.2339383695052        759.3008074309447        826.4681359601921        890.2701137239385
10.474006116207955        462.5990008378835        541.7309917043505        616.4866728622903        689.0129712494095        759.0917605885458        826.273107329694         890.0903258654336
10.550458715596333        462.36645009752385       541.4954312494818        616.2565762706607        688.7920041293138        758.8827137461469        826.078078699196         889.9105380069287
10.626911314984714        462.1401599648913        541.2667884314018        616.033813626649         688.5786125461813        758.6813388488354        825.8906956179403        889.7382665247329
10.703363914373092        461.9138698322588        541.0381456133218        615.8110509826372        688.3652209630486        758.4799639515237        825.7033125366844        889.565995042537
10.779816513761471        461.68757969962627       540.8095027952418        615.5882883386255        688.151829379916         758.2785890542121        825.5159294554285        889.3937235603412
10.856269113149853        461.4668130391378        540.586958830542         615.3720166333214        687.9451590043142        758.0840447703021        825.3353756653592        889.2281828747521
10.932721712538232        461.2460463786493        540.3644148658423        615.1557449280173        687.7384886287123        757.8895004863919        825.1548218752896        889.0626421891627
11.009174311926612        461.0252797181608        540.1418709011425        614.9394732227131        687.5318182531104        757.6949562024816        824.9742680852202        888.8971015035735
11.08562691131499         460.80969569186675       539.9249555232026        614.7291537731206        687.3312882076043        757.5066192217812        824.7998850696515        888.737608151251
11.162079510703366        460.59411166557265       539.7080401452625        614.5188343235283        687.1307581620981        757.3182822410806        824.6255020540827        888.5781147989285
11.238532110091741        460.37852763927856       539.4911247673226        614.3085148739358        686.930228116592         757.1299452603802        824.4511190385141        888.4186214466059
11.314984709480123        460.1679673302944        539.2797404175021        614.1040142392278        686.7356729434867        756.947626119933         824.2826977387673        888.2649527869135
11.391437308868502        459.9574070213102        539.0683560676815        613.8995136045197        686.5411177703813        756.7653069794858        824.1142764390205        888.1112841272209
11.467889908256883        459.746846712326         538.856971717861         613.6950129698117        686.3465625972759        756.5829878390385        823.9458551392737        887.9576154675283
11.544342507645261        459.54140814907856       538.651183631499         613.496442323184         686.1581317623898        756.4068617208968        823.7835872666462        887.8099725547654