% Model:              Cav_Hex_Unif_flux_v5.1 - Base Case.mph
% Version:            COMSOL 5.5.0.359
% Date:               Oct 25 2021, 20:50
% Dimension:          1
% Nodes:              261
% Expressions:        5
% Description:        Line graph
% x                       Height                   Height                   Height                   Height                   Height
0                         317.9402442361299        317.9104535024992        317.89035991833504       317.87380547365274       317.8595565750393
0.18549699883316212       317.6704398957124        317.5061411989739        317.39535649130835       317.30413185409566       317.22566450565904
0.37099399766632424       317.4006355552949        317.10182889544865       316.9003530642816        316.7344582345385        316.5917724362788
0.5564909964994864        317.1308312148774        316.69751659192343       316.4053496372549        316.1647846149814        315.9578803668985
0.7419879953326485        316.8610268744599        316.29320428839816       315.9103462102282        315.5951109954243        315.32398829751827
0.9274849941658107        316.59681017606675       315.8980327252957        315.42730459697606       315.03994649094597       314.70696739039283
1.1129819929989728        316.3325934776735        315.5028611621932        314.9442629837239        314.4847819864676        314.08994648326734
1.2984789918321349        316.06837677928036       315.1076895990907        314.46122137047166       313.92961748198934       313.4729255761419
1.483975990665297         315.8041600808872        314.7125180359882        313.9781797572195        313.374452977511         312.85590466901647
1.674094359971054         316.38473869464997       315.58586722562205       315.0504743824935        314.6112333800371        314.23454524756653
1.8642127292768105        316.96531730841275       316.4592164152559        316.1227690077676        315.84801378256327       315.61318582611653
2.054331098582567         317.5458959221756        317.33256560488974       317.1950636330416        317.0847941850894        316.99182640466654
2.244449467888324         318.12647453593837       318.2059147945236        318.26735825831565       318.3215745876155        318.3704669832166
2.436330901635048         319.35152913890295       320.04267688728294       320.5167391756418        320.91061449973864       321.2515348937077
2.628212335381772         320.57658374186747       321.8794389800423        322.766120092968         323.4996544118618        324.1326028041988
2.8200937691284964        321.801638344832         323.71620107280165       325.0155010102941        326.08869432398495       327.01367071468997
3.0119752028752202        323.02669294779656       325.552963165561         327.26488192762025       328.6777342361081        329.89473862518105
3.2038566366219436        324.92286577744017       328.3880770061039        330.7298264308005        332.65948128282696       334.31979380880637
3.395738070368667         326.8190386070837        331.22319084664684       334.19477093398075       336.6412283295458        338.7448489924317
3.5876195041153913        328.7152114367273        334.0583046871898        337.659715437161         340.6229753762646        343.16990417605706
3.7795009378621147        330.6113842663709        336.8934185277327        341.12465994034125       344.60472242298346       347.5949593596824
3.971734984497032         332.2741744209487        339.38407167787307       344.1722187949793        348.1099877198903        351.4934305070756
4.163969031131949         333.93696457552653       341.8747248280135        347.2197776496173        351.6152530167971        355.3919016544688
4.356203077766867         335.5997547301043        344.3653779781539        350.26733650425535       355.12051831370394       359.2903728018621
4.548437124401785         337.2625448846821        346.85603112829426       353.31489535889335       358.62578361061077       363.1888439492553
4.741376396813089         339.1085397447732        349.61113949909844       356.6776556445109        362.486217611397         367.47568398452535
4.934315669224393         340.9545346048643        352.3662478699026        360.04041593012846       366.34665161218334       371.76252401979536
5.127254941635698         342.8005294649554        355.1213562407068        363.40317621574604       370.20708561296965       376.04936405506544
5.320194214047002         344.64652432504647       357.876464611511         366.7659365013636        374.06751961375596       380.3362040903355
5.5131334864583055        346.91450643002224       361.25661142256104       370.8872869525883        378.7950388194273        385.5826183857984
5.70607275886961          349.1824885349979        364.63675823361103       375.00863740381305       383.52255802509853       390.8290326812613
5.899012031280914         351.4504706399736        368.01690504466103       379.12998785503777       388.2500772307698        396.07544697672415
6.091951303692218         353.71845274494933       371.3970518557111        383.2513383062625        392.9775964364411        401.32186127218705
6.284890576103522         357.23484927434066       376.6054253628672        389.5782450671036        400.21528311697205       409.33692352377085
6.477829848514826         360.7512458037321        381.8137988700234        395.9051518279447        407.4529697975031        417.35198577535465
6.67076912092613          364.26764233312343       387.0221723771796        402.2320585887858        414.6906564780341        425.36704802693845
6.8637083933374345        367.7840388625148        392.2305458843357        408.5589653496269        421.9283431585651        433.38211027852225
7.056647665748739         370.4128737146515        396.12616521282007       413.2921469473572        427.34397200647595       439.38041346216653
7.249586938160043         373.04170856678815       400.0217845413044        418.0253285450875        432.75960085438675       445.37871664581087
7.442526210571347         375.6705434189248        403.9174038697887        422.7585101428178        438.17522970229754       451.37701982945515
7.635465482982651         378.29937827106147       407.8130231982731        427.4916917405481        443.5908585502084        457.37532301309943
7.828404755393956         380.66348579608706       411.3017056453812        431.7207190040504        448.4217903192106        462.7194872529116
8.02134402780526          383.0275933211126        414.79038809248937       435.9497462675527        453.2527220882127        468.0636514927238
8.214283300216563         385.3917008461382        418.27907053959757       440.178773531055         458.0836538572148        473.40781573253594
8.407222572627868         387.75580837116377       421.7677529867057        444.4078007945573        462.914585626217         478.7519799723481
8.600161845039171         390.23459158427113       425.4034847897934        448.80117126629466       467.9222782547316        484.28254458574816
8.793101117450474         392.7133747973785        429.0392165928811        453.19454173803194       472.92997088324637       489.81310919914824
8.98604038986178          395.19215801048585       432.6749483959688        457.58791220976923       477.937663511761         495.34367381254833
9.178979662273083         397.6709412235932        436.3106801990565        461.98128268150657       482.9453561402757        500.87423842594836
9.371918934684388         400.34568068993076       440.2180577510554        466.6935765558836        488.30932111326416       506.7921160935005
9.564858207095693         403.02042015626824       444.12543530305436       471.40587043026073       493.6732860862526        512.7099937610526
9.757797479506998         405.69515962260573       448.03281285505335       476.11816430463784       499.03725105924104       518.6278714286047
9.950736751918303         408.36989908894327       451.9401904070523        480.8304581790149        504.4012160322295        524.5457490961569
10.143676024329606        410.62269368747855       455.2197830110927        484.7790081327767        508.89075178261476       529.4948178642877
10.33661529674091         412.87548828601393       458.4993756151332        488.72755808653847       513.380287533            534.4438866324185
10.529554569152214        415.1282828845492        461.77896821917363       492.6761080403003        517.8698232833852        539.3929554005492
10.72249384156352         417.38107748308454       465.05856082321407       496.62465799406203       522.3593590337705        544.34202416868
10.915433113974824        419.10763486150785       467.5606985873061        499.6306963381415        525.7723588874318        548.1002757965488
11.108372386386128        420.8341922399311        470.0628363513981        502.63673468222095       529.1853587410931        551.8585274244174
11.301311658797433        422.5607496183544        472.56497411549014       505.6427730263004        532.5983585947544        555.6167790522861
11.494250931208736        424.2873069967777        475.06711187958217       508.64881137037986       536.0113584484156        559.3750306801549
11.687190203620041        426.7201330380496        478.5713888817679        512.8473522775657        540.7692689374877        564.6067464933717
11.880129476031343        429.1529590793215        482.0756658839537        517.0458931847517        545.5271794265598        569.8384623065886
12.073068748442648        431.5857851205934        485.5799428861395        521.2444340919375        550.2850899156318        575.0701781198055
12.26600802085395         434.0186111618653        489.08421988832526       525.4429749991234        555.0430004047039        580.3018939330224
12.458947293265256        435.96440608827254       491.87114398219956       528.7739235173286        558.811415849339         584.4404188047732
12.651886565676563        437.9102010146797        494.65806807607385       532.1048720355338        562.5798312939743        588.5789436765241
12.844825838087868        439.8559959410869        497.44499216994814       535.4358205537392        566.3482467386095        592.717468548275
13.037765110499173        441.8017908674941        500.2319162638224        538.7667690719444        570.1166621832447        596.8559934200258
13.230704382910476        443.48285404151966       502.64090313426874       541.6463270258466        573.3748625102271        600.4344759359453
13.42364365532178         445.1639172155452        505.04989000471505       544.525884979749         576.6330628372095        604.012958451865
13.616582927733083        446.84498038957076       507.4588768751613        547.4054429336513        579.891263164192         607.5914409677845
13.809522200144386        448.5260435635963        509.8678637456076        550.2850008875536        583.1494634911744        611.169923483704
14.00246147255569         450.4694676451159        512.6311352212118        553.5772773376892        586.8661891230176        615.2450285348195
14.195400744966994        452.4128917266355        515.394406696816         556.8695537878249        590.5829147548609        619.3201335859351
14.3883400173783          454.35631580815516       518.1576781724202        560.1618302379605        594.2996403867041        623.3952386370507
14.581279289789604        456.29973988967475       520.9209496480244        563.4541066880962        598.0163660185474        627.4703436881663
14.774218562200907        457.7683351641153        523.0029287885828        565.9315858543109        600.8109607602898        630.5324966696224
14.96715783461221         459.2369304385559        525.0849079291413        568.4090650205255        603.6055555020322        633.5946496510787
15.160097107023516        460.7055257129964        527.1668870696997        570.8865441867401        606.4001502437745        636.6568026325349
15.353036379434819        462.17412098743694       529.2488662102581        573.3640233529549        609.194744985517         639.7189556139912
15.545975651846126        463.4442808847445        531.048737413518         575.5055038050215        611.610026097898         642.3652540646328
15.73891492425743         464.71444078205207       532.8486086167777        577.6469842570882        614.0253072102789        645.0115525152744
15.931854196668736        465.9846006793596        534.6484798200376        579.7884647091548        616.44058832266          647.6578509659159
16.12479346908004         467.25476057666714       536.4483510232974        581.9299451612216        618.855869435041         650.3041494165575
16.317732741491344        468.69838230793175       538.4788043528727        584.3381693890935        621.5663283199688        653.2691350657099
16.510672013902646        470.1420040391964        540.5092576824479        586.7463936169654        624.2767872048966        656.2341207148621
16.703611286313947        471.5856257704611        542.5397110120232        589.1546178448373        626.9872460898243        659.1991063640144
16.896550558725252        473.02924750172576       544.5701643415985        591.5628420727093        629.6977049747521        662.1640920131667
17.089489831136557        474.5177287372844        546.652019609841         594.0263327542702        632.4659486190773        665.1885779998178
17.282429103547862        476.0062099728432        548.7338748780835        596.4898234358313        635.2341922634024        668.2130639864688
17.475368375959167        477.4946912084019        550.8157301463259        598.9533141173924        638.0024359077275        671.2375499731199
17.668307648370472        478.9831724439606        552.8975854145684        601.4168047989535        640.7706795520527        674.262035959771
17.861246920781774        480.1768071925717        554.564985654427         603.3887632652375        642.9859523772944        676.6818094407962
18.05418619319308         481.3704419411828        556.2323858942855        605.3607217315214        645.2012252025362        679.1015829218213
18.24712546560438         482.56407668979386       557.899786134144         607.3326801978052        647.416498027778         681.5213564028465
18.440064738015682        483.75771143840495       559.5671863740026        609.3046386640891        649.6317708530197        683.9411298838718
18.633004010426987        484.8139008857733        561.0372857467582        611.0403905634313        651.5796495233637        686.0671085600954
18.825943282838292        485.87009033314155       562.5073851195139        612.7761424627734        653.5275281937079        688.1930872363191
19.0188825552496          486.9262797805099        563.9774844922695        614.5118943621155        655.4754068640519        690.3190659125429
19.211821827660906        487.9824692278782        565.4475838650251        616.2476462614577        657.423285534396         692.4450445887666
19.40476110007221         489.3415859186697        567.332943940168         618.4714711669892        659.9163945121971        695.1641559472635
19.597700372483512        490.7007026094612        569.2183040153108        620.6952960725207        662.4095034899983        697.8832673057603
19.790639644894817        492.0598193002527        571.1036640904535        622.9191209780523        664.9026124677994        700.6023786642572
19.983578917306122        493.4189359910442        572.9890241655964        625.1429458835838        667.3957214456005        703.3214900227541
20.176518189717427        494.28748144147886       574.1891486275982        626.5559561732684        668.978078067959         705.0457859917531
20.36945746212873         495.1560268919136        575.3892730896           627.9689664629531        670.5604346903174        706.7700819607521
20.56239673454003         496.0245723423483        576.5893975516017        629.3819767526377        672.1427913126759        708.4943779297511
20.755336006951335        496.89311779278296       577.7895220136035        630.7949870423223        673.7251479350342        710.21867389875
20.94827527936264         497.97489432087457       579.2803942346636        632.5477640688981        675.6865161712982        712.3546121027704
21.141214551773945        499.0566708489662        580.7712664557239        634.3005410954738        677.6478844075623        714.4905503067909
21.33415382418525         500.13844737705773       582.262138676784         636.0533181220496        679.6092526438263        716.6264885108112
21.52709309659656         501.22022390514934       583.7530108978442        637.8060951486254        681.5706208800904        718.7624267148317
21.72003236900786         502.2362306009365        585.1489213634353        639.4452365206348        683.4031008311962        720.7565596421385
21.912971641419166        503.25223729672365       586.5448318290264        641.084377892644         685.2355807823019        722.7506925694454
22.105910913830467        504.2682439925108        587.9407422946174        642.7235192646533        687.0680607334077        724.7448254967522
22.29885018624177         505.28425068829796       589.3366527602085        644.3626606366627        688.9005406845134        726.7389584240591
22.491789458653074        506.369556503456         590.8211220151384        646.1020752846844        690.8423399314682        728.8496112154494
22.68472873106438         507.4548623186141        592.3055912700684        647.8414899327062        692.7841391784232        730.9602640068397
22.87766800347568         508.5401681337722        593.7900605249982        649.580904580728         694.725938425378         733.0709167982301
23.07060727588698         509.62547394893033       595.2745297799281        651.3203192287497        696.6677376723329        735.1815695896204
23.263546548298287        510.51029754296667       596.4865688015037        652.7419159613446        698.255515525558         736.9081796030947
23.45648582070959         511.3951211370031        597.6986078230793        654.1635126939395        699.8432933787832        738.6347896165689
23.649425093120897        512.2799447310394        598.9106468446548        655.5851094265346        701.4310712320083        740.3613996300433
23.8423643655322          513.1647683250759        600.1226858662304        657.0067061591295        703.0188490852335        742.0880096435176
24.035303637943503        514.0530659377295        601.3301237433907        658.4178928817249        704.5911328776975        743.794417478
24.22824291035481         514.9413635503829        602.5375616205508        659.8290796043202        706.1634166701615        745.5008253124826
24.42118218276611         515.8296611630365        603.7449994977111        661.2402663269156        707.7357004626256        747.2072331469651
24.61412145517741         516.7179587756899        604.9524373748714        662.651453049511         709.3079842550895        748.9136409814475
24.807060727588716        517.7339212038447        606.3302790047283        664.2606710728594        711.09948955688          750.8568039309521
25.00000000000002         518.7498836319996        607.7081206345852        665.8698890962078        712.8909948586706        752.7999668804564
25.192939272411326        519.7658460601544        609.0859622644421        667.4791071195561        714.6825001604611        754.7431298299609
25.38587854482263         520.7818084883093        610.463803894299         669.0883251429045        716.4740054622516        756.6862927794654
25.578817817233936        521.4990838648993        611.4336703678142        670.2194717659595        717.7320776072954        758.0498190051956
25.77175708964524         522.2163592414893        612.4035368413295        671.3506183890144        718.9901497523393        759.4133452309259
25.96469636205655         522.9336346180792        613.3734033148446        672.4817650120692        720.2482218973832        760.7768714566562
26.157635634467855        523.6509099946692        614.3432697883599        673.6129116351242        721.506294042427         762.1403976823865
26.35057490687916         524.3592437196721        615.3007490902405        674.7296009114973        722.7482239758153        763.4864242645651
26.54351417929046         525.067577444675         616.2582283921213        675.8462901878704        723.9901539092034        764.832450846744
26.736453451701763        525.7759111696779        617.2157076940019        676.9629794642436        725.2320838425916        766.1784774289227
26.929392724113068        526.4842448946808        618.1731869958826        678.0796687406167        726.4740137759798        767.5245040111015
27.12233199652437         527.0633953041529        618.9547864370559        678.9901943460447        727.4861359574595        768.6209211307826
27.315271268935675        527.642545713625         619.7363858782292        679.9007199514728        728.4982581389393        769.7173382504634
27.50821054134698         528.2216961230972        620.5179853194026        680.8112455569008        729.510380320419         770.8137553701445
27.70114981375828         528.8008465325693        621.2995847605758        681.7217711623288        730.5225025018988        771.9101724898254
27.894089086169586        529.4409430243593        622.1601959415393        682.7225233519292        731.6335147014357        773.1124969982483
28.087028358580888        530.0810395161492        623.0208071225028        683.7232755415297        732.7445269009727        774.3148215066713
28.279967630992193        530.7211360079391        623.8814183034663        684.7240277311301        733.8555391005098        775.5171460150941
28.472906903403498        531.3612324997291        624.7420294844297        685.7247799207306        734.9665513000467        776.7194705235171
28.665846175814803        532.0313903889802        625.6397538056046        686.7665929454795        736.1215502977725        777.9679438432687
28.858785448226108        532.7015482782313        626.5374781267794        687.8084059702284        737.2765492954984        779.2164171630203
29.051724720637417        533.3717061674823        627.4352024479542        688.8502189949772        738.4315482932243        780.4648904827719
29.24466399304872         534.0418640567334        628.3329267691291        689.8920320197261        739.5865472909501        781.7133638025235
29.437603265460027        534.8895627289055        629.4668952542816        691.208081057394         741.0447903081082        783.2891138205752
29.630542537871328        535.7372614010777        630.600863739434         692.524130095062         742.5030333252662        784.8648638386268
29.82348181028263         536.5849600732499        631.7348322245864        693.8401791327299        743.9612763424243        786.4406138566784
30.016421082693935        537.432658745422         632.8688007097388        695.1562281703979        745.4195193595823        788.01636387473
30.209360355105236        538.0462218759845        633.6875379980409        696.1046961993218        746.4695260029196        789.1500727202313
30.40229962751654         538.659785006547         634.506275286343         697.0531642282457        747.519532646257         790.2837815657324
30.595238899927843        539.2733481371097        635.3250125746451        698.0016322571696        748.5695392895943        791.4174904112335
30.788178172339144        539.8869112676722        636.1437498629473        698.9501002860935        749.6195459329316        792.5511992567348
30.981117444750446        540.4476728254556        636.8912536604565        699.8155248810502        750.5772428485741        793.5848697844503
31.174056717161747        541.0084343832389        637.6387574579658        700.6809494760068        751.5349397642166        794.618540312166
31.36699598957305         541.5691959410223        638.3862612554751        701.5463740709636        752.4926366798591        795.6522108398816
31.559935261984354        542.1299574988057        639.1337650529844        702.4117986659203        753.4503335955015        796.6858813675972
31.75287453439565         542.6851565857535        639.8716945708532        703.2653146091956        754.3937192560193        797.7031904779743
31.945813806806957        543.2403556727013        640.6096240887221        704.1188305524709        755.337104916537         798.7204995883515
32.13875307921826         543.795554759649         641.3475536065908        704.972346495746         756.2804905770547        799.7378086987287
32.33169235162957         544.3507538465968        642.0854831244596        705.8258624390213        757.2238762375724        800.7551178091059
32.52463162404087         544.7058282935795        642.5571376127252        706.3712708565588        757.8265721120364        801.4049213591061
32.71757089645218         545.0609027405624        643.0287921009907        706.9166792740964        758.4292679865003        802.0547249091062
32.91051016886348         545.4159771875452        643.5004465892562        707.462087691634         759.0319638609643        802.7045284591063
33.10344944127479         545.7710516345279        643.9721010775218        708.0074961091716        759.6346597354283        803.3543320091064
33.29638871368609         546.141494115961         644.4623773878739        708.5733877011614        760.2590370466943        804.026682594431
33.48932798609741         546.511936597394         644.952653698226         709.139279293151         760.8834143579602        804.6990331797558
33.682267258508716        546.882379078827         645.4429300085781        709.7051708851409        761.5077916692262        805.3713837650804
33.875206530920025        547.25282156026          645.9332063189302        710.2710624771306        762.1321689804922        806.0437343504051
34.068145803331326        547.6060531635525        646.4004029148182        710.8101421687443        762.7267900628112        806.6838947500356
34.26108507574263         547.959284766845         646.8675995107061        711.3492218603579        763.3214111451302        807.3240551496662
34.45402434815393         548.3125163701375        647.334796106594         711.8883015519716        763.9160322274493        807.9642155492967
34.64696362056523         548.6657479734299        647.801992702482         712.4273812435853        764.5106533097683        808.6043759489272
34.83990289297654         549.1419559878017        648.4302104612349        713.1505072252054        765.3074573368667        809.4613664073402
35.03284216538784         549.6181640021734        649.0584282199877        713.8736332068256        766.1042613639652        810.3183568657531
35.22578143779915         550.0943720165453        649.6866459787406        714.5967591884457        766.9010653910638        811.1753473241661
35.41872071021045         550.5705800309171        650.3148637374934        715.319885170066         767.6978694181622        812.032337782579
35.61165998262175         551.043708369067         650.9380496889123        716.0370506233158        768.4875450042605        812.8812509434898
35.804599255033054        551.5168367072167        651.5612356403312        716.7542160765656        769.2772205903586        813.7301641044005
35.99753852744436         551.9899650453665        652.1844215917502        717.4713815298155        770.0668961764568        814.5790772653113
36.190477799855664        552.4630933835164        652.8076075431691        718.1885469830653        770.856571762555         815.427990426222
36.38341707226697         552.8876959545289        653.3655898255197        718.8300176966827        771.5621880883393        816.1859369601797
36.576356344678274        553.3122985255416        653.9235721078703        719.4714884103003        772.2678044141238        816.9438834941374
36.76929561708958         553.7369010965542        654.4815543902209        720.1129591239178        772.9734207399083        817.7018300280951
36.96223488950088         554.1615036675669        655.0395366725716        720.7544298375352        773.6790370656927        818.4597765620528
37.155174161912186        554.6643962964329        655.6991579245974        721.5126376671042        774.512291096959         819.354269038759
37.34811343432349         555.1672889252989        656.3587791766233        722.270845496673         775.3455451282252        820.2487615154653
37.541052706734796        555.6701815541649        657.0184004286493        723.0290533262419        776.1787991594916        821.1432539921716
37.7339919791461          556.1730741830308        657.6780216806752        723.7872611558107        777.0120531907579        822.0377464688778
37.926931251557406        556.4599777631099        658.0541380639089        724.2186874099291        777.4861252077512        822.546481470506
38.11987052396871         556.746881343189         658.4302544471426        724.6501136640472        777.9601972247444        823.0552164721341
38.312809796380016        557.0337849232682        658.8063708303763        725.0815399181656        778.4342692417376        823.5639514737622
38.50574906879132         557.3206885033472        659.18248721361          725.5129661722839        778.9083412587308        824.0726864753905
38.698688341202626        557.6866832965319        659.6612233318119        726.0617716955295        779.5107325228832        824.7186097662602
38.89162761361392         558.0526780897167        660.1399594500137        726.6105772187751        780.1131237870356        825.3645330571298
39.08456688602523         558.4186728829013        660.6186955682156        727.1593827420207        780.7155150511879        826.0104563479996
39.27750615843653         558.784667676086         661.0974316864174        727.7081882652664        781.3179063153403        826.6563796388693