% Model:              Cav_Hex_Unif_flux_v5.1 - Base Case.mph
% Version:            COMSOL 5.5.0.359
% Date:               Oct 25 2021, 20:55
% Dimension:          1
% Nodes:              469
% Expressions:        5
% Description:        Line graph
% x                       Height                   Height                   Height                   Height                   Height
0                         949.8620106775065        1149.5713080590156       1202.0821837219096       1229.2070073051816       1246.9066173415088
0.8547008547008556        953.4117470350611        1154.4776566043295       1207.0266079636124       1234.0008756850966       1251.5036907153378
1.709401709401711         956.9614833926155        1159.3840051496431       1211.9710322053152       1238.7947440650114       1256.1007640891667
2.5641025641025665        960.51121975017          1164.2903536949568       1216.915456447018        1243.5886124449264       1260.6978374629957
3.418803418803422         965.1846500627321        1170.6503746256176       1223.3909906430952       1250.0028592837539       1267.0158076413518
4.273504273504278         969.858080375294         1177.0103955562781       1229.8665248391721       1256.4171061225813       1273.3337778197078
5.128205128205133         974.531510687856         1183.370416486939        1236.3420590352493       1262.8313529614088       1279.651747998064
5.982905982905989         979.5862049302218        1190.0801261785334       1243.1163962115959       1269.5329270484344       1286.2641006658002
6.837606837606845         984.6408991725875        1196.7898358701277       1249.8907333879426       1276.2345011354598       1292.8764533335363
7.692307692307701         989.6955934149532        1203.4995455617222       1256.6650705642892       1282.9360752224854       1299.4888060012727
8.547008547008557         994.8726493333796        1210.187654904546        1263.3369395546974       1289.5016766026974       1305.951054667578
9.401709401709413         1000.0497052518059       1216.8757642473695       1270.0088085451057       1296.0672779829092       1312.4133033338833
10.256410256410268        1005.2267611702323       1223.5638735901932       1276.680677535514        1302.6328793631212       1318.8755520001885
11.111111111111125        1009.991439894613        1229.147766472949        1281.960091999182        1307.6611789500514       1323.7132663088912
11.965811965811982        1014.7561186189935       1234.7316593557046       1287.23950646285         1312.6894785369816       1328.5509806175937
12.820512820512837        1019.520797343374        1240.3155522384602       1292.518920926518        1317.7177781239118       1333.3886949262965
13.675213675213692        1023.7721581912522       1244.854914688576        1296.5753033277344       1321.4430320051424       1336.8774729702975
14.529914529914548        1028.0235190391302       1249.3942771386917       1300.631685728951        1325.1682858863728       1340.3662510142985
15.384615384615401        1032.2748798870082       1253.9336395888074       1304.6880681301675       1328.8935397676034       1343.8550290582996
16.239316239316256        1036.1434044851555       1257.7580535979662       1307.9362240231308       1331.7800072772852       1346.5021898186112
17.09401709401711         1040.011929083303        1261.582467607125        1311.184379916094        1334.6664747869668       1349.1493505789228
17.948717948717967        1043.8804536814503       1265.4068816162837       1314.4325358090573       1337.5529422966483       1351.7965113392345
18.803418803418825        1047.3140527530627       1268.4450709199518       1316.7917954171157       1339.5114822362548       1353.5086955081408
19.65811965811968         1050.747651824675        1271.4832602236197       1319.151055025174        1341.470022175861        1355.220879677047
20.51282051282054         1054.1812508962873       1274.5214495272878       1321.5103146332324       1343.4285621154675       1356.933063845953
21.367521367521395        1056.5252545302187       1275.8613283079758       1322.076929922085        1343.5563968599945       1356.7708096433048
22.222222222222246        1058.8692581641499       1277.2012070886635       1322.6435452109372       1343.6842316045215       1356.6085554406563
23.0769230769231          1061.213261798081        1278.5410858693515       1323.2101604997897       1343.8120663490486       1356.4463012380081
23.93162393162396         1063.0969212511488       1279.2320165361546       1323.124389301669        1343.2999377923552       1355.6554714608044
24.786324786324816        1064.980580704217        1279.9229472029574       1323.0386181035483       1342.7878092356616       1354.8646416836007
25.641025641025678        1066.8642401572847       1280.6138778697605       1322.9528469054276       1342.2756806789682       1354.073811906397
26.495726495726533        1068.3516328911196       1280.7909879358072       1322.3723723193484       1341.2895859771156       1352.8231979141535
27.350427350427385        1069.8390256249543       1280.9680980018536       1321.7918977332693       1340.3034912752628       1351.57258392191
28.205128205128236        1071.3264183587892       1281.1452080679003       1321.21142314719         1339.3173965734102       1350.3219699296667
29.05982905982909         1072.3545062070787       1280.7663535371482       1320.1096535331167       1337.841211535084        1348.604167765467
29.914529914529943        1073.382594055368        1280.387499006396        1319.007883919043        1336.365026496758        1346.8863656012672
30.7692307692308          1074.4106819036574       1280.0086444756437       1317.9061143049696       1334.888841458432        1345.1685634370674
31.623931623931657        1074.4795554462398       1278.5238078142684       1315.7783239825687       1332.4725822924856       1342.5965532027801
32.47863247863251         1074.548428988822        1277.0389711528928       1313.6505336601676       1330.0563231265392       1340.0245429684926
33.33333333333337         1074.6173025314042       1275.5541344915173       1311.5227433377665       1327.6400639605927       1337.452532734205
34.18803418803423         1074.3487255000023       1273.729545459795        1309.082298486316        1324.9207589090481       1334.5737659456788
35.04273504273508         1074.0801484686006       1271.9049564280724       1306.6418536348651       1322.2014538575033       1331.6949991571523
35.89743589743594         1073.8115714371986       1270.08036739635         1304.2014087834145       1319.4821488059588       1328.8162323686258
36.7521367521368          1073.2553833703353       1267.9935226498253       1301.5326208555778       1316.5506004917818       1325.7312851468616
37.60683760683765         1072.6991953034717       1265.9066779033003       1298.8638329277408       1313.6190521776045       1322.6463379250974
38.4615384615385          1072.1430072366084       1263.8198331567755       1296.195044999904        1310.6875038634273       1319.5613907033332
39.31623931623936         1071.2767533011715       1261.4889810786274       1293.3363396500051       1307.5977498395616       1316.338287079202
40.17094017094022         1070.410499365735        1259.1581290004792       1290.477634300106        1304.5079958156955       1313.1151834550708
41.02564102564108         1069.5442454302981       1256.827276922331        1287.618928950207        1301.4182417918296       1309.8920798309396
41.88034188034194         1068.0778960414434       1254.0361178379173       1284.3991558860193       1298.0148600390826       1306.3907018571192
42.73504273504279         1066.6115466525885       1251.2449587535034       1281.1793828218317       1294.6114782863353       1302.8893238832986
43.58974358974364         1065.1451972637335       1248.4537996690897       1277.959609757644        1291.208096533588        1299.387945909478
44.4444444444445          1063.4271448475827       1245.470016566883        1274.5653322981937       1287.6267819572959       1295.7007531696938
45.29914529914535         1061.7090924314316       1242.4862334646762       1271.171054838743        1284.0454673810034       1292.0135604299094
46.1538461538462          1059.9910400152805       1239.5024503624693       1267.7767773792925       1280.464152804711        1288.326367690125
47.00854700854706         1058.0710041631055       1236.365257221832        1264.2464078352955       1276.7494659896931       1284.5051273693962
47.86324786324791         1056.1509683109307       1233.2280640811946       1260.7160382912984       1273.0347791746751       1280.6838870486672
48.71794871794877         1054.2309324587557       1230.0908709405571       1257.1856687473014       1269.3200923596573       1276.8626467279385
49.57264957264963         1052.1180884924336       1226.8350747958339       1253.5702626977825       1265.53859423176         1272.988233007025
50.42735042735048         1050.0052445261113       1223.5792786511104       1249.9548566482638       1261.7570961038628       1269.1138192861115
51.28205128205134         1047.892400559789        1220.323482506387        1246.3394505987449       1257.9755979759655       1265.239405565198
52.1367521367522          1045.4619515453865       1216.8737092905317       1242.6018708164486       1254.1168345422245       1261.3197248113834
52.991452991453045        1043.0315025309837       1213.423936074676        1238.864291034152        1250.2580711084834       1257.4000440575687
53.846153846153896        1040.6010535165813       1209.9741628588204       1235.1267112518558       1246.3993076747422       1253.480363303754
54.700854700854755        1037.9560083076258       1206.3932078900084       1231.2950655881912       1242.4631754795917       1249.4924163850553
55.55555555555561         1035.3109630986703       1202.8122529211967       1227.4634199245263       1238.527043284441        1245.5044694663563
56.410256410256466        1032.6659178897148       1199.2312979523847       1223.6317742608617       1234.5909110892906       1241.5165225476576
57.264957264957324        1029.9165206114305       1195.602090448453        1219.7676680261307       1230.6254325540842       1237.5000059212166
58.119658119658176        1027.167123333146        1191.9728829445212       1215.9035617913994       1226.659954018878        1233.4834892947756
58.97435897435903         1024.4177260548615       1188.3436754405893       1212.0394555566681       1222.6944754836716       1229.4669726683346
59.82905982905989         1021.5867304647604       1184.7004740216953       1208.186702076467        1218.7502666302464       1225.4774009381224
60.68376068376074         1018.7557348746592       1181.0572726028013       1204.333948596266        1214.8060577768213       1221.48782920791
61.5384615384616          1015.924739284558        1177.4140711839073       1200.481195116065        1210.861848923396        1217.4982574776975
62.393162393162456        1012.9998090178057       1173.753069080216        1196.64196473346         1206.9415072622412       1213.5327903400453
63.247863247863314        1010.0748787510531       1170.0920669765244       1192.8027343508554       1203.021165601086        1209.567323202393
64.10256410256417         1007.1499484843007       1166.4310648728328       1188.9635039682505       1199.100823939931        1205.6018560647408
64.95726495726502         1004.1270724016165       1162.766636983523        1185.155763425806        1195.2306144156603       1201.6948558605138
65.81196581196588         1001.104196318932        1159.1022090942133       1181.3480228833614       1191.3604048913896       1197.7878556562869
66.66666666666673         998.0813202362476        1155.4377812049036       1177.540282340917        1187.490195367119        1193.88085545206
67.52136752136758         995.0216101668765        1151.7669117603666       1173.7248510445474       1183.606005742368        1189.9547377616163
68.37606837606843         991.9619000975051        1148.09604231583         1169.909419748178        1179.721816117617        1186.0286200711726
69.2307692307693          988.9021900281339        1144.425172871293        1166.0939884518084       1175.837626492866        1182.1025023807288
70.08547008547016         985.8197178913102        1140.7562719392622       1162.2793945688354       1171.9491990680178       1178.168243778674
70.94017094017101         982.7372457544864        1137.0873710072312       1158.4648006858622       1168.0607716431693       1174.2339851766192
71.79487179487188         979.6547736176626        1133.4184700752005       1154.6502068028892       1164.172344218321        1170.2997265745644
72.64957264957273         976.5633842636885        1129.7627863007442       1150.84734705055         1160.2926766873175       1166.3728311690425
73.50427350427357         973.4719949097141        1126.1071025262877       1147.044487298211        1156.4130091563136       1162.4459357635203
74.35897435897442         970.3806055557399        1122.4514187518314       1143.2416275458718       1152.5333416253097       1158.5190403579984
75.21367521367529         967.2383903256069        1118.764037139327        1139.4202390531748       1148.6446688558397       1154.5875220801736
76.06837606837614         964.0961750954739        1115.0766555268224       1135.5988505604776       1144.7559960863694       1150.6560038023486
76.92307692307699         960.9539598653408        1111.389273914318        1131.7774620677806       1140.8673233168993       1146.7244855245237
77.77777777777786         957.7836060593343        1107.705155361899        1127.9773899600314       1137.0096776060664       1142.8298357672584
78.63247863247871         954.6132522533276        1104.02103680948         1124.1773178522822       1133.1520318952334       1138.9351860099928
79.48717948717956         951.4428984473209        1100.336918257061        1120.377245744533        1129.2943861844005       1135.0405362527274
80.34188034188041         948.2564930580512        1096.6397809361335       1116.5725169614407       1125.4418570263904       1131.1607828621443
81.19658119658126         945.0700876687815        1092.942643615206        1112.7677881783482       1121.5893278683802       1127.2810294715612
82.0512820512821          941.8836822795118        1089.2455062942786       1108.9630593952556       1117.73679871037         1123.401276080978
82.90598290598297         938.6981637023341        1085.5497192289527       1105.1626996054147       1113.8929872097174       1119.5356056755818
83.76068376068382         935.5126451251564        1081.853932163627        1101.3623398155735       1110.0491757090645       1115.6699352701858
84.61538461538467         932.3271265479787        1078.158145098301        1097.5619800257323       1106.2053642084115       1111.8042648647895
85.47008547008552         929.157099891914         1074.4782504811365       1093.782270316838        1102.3890598012301       1107.972905455039
86.32478632478637         925.9870732358492        1070.7983558639717       1090.002560607944        1098.5727553940485       1104.1415460452881
87.17948717948723         922.8170465797845        1067.1184612468069       1086.2228508990497       1094.7564509868669       1100.3101866355375
88.0341880341881          919.7188677689157        1063.5313863959523       1082.5369440046766       1091.0294226286408       1096.5636148722604
88.88888888888897         916.6206889580469        1059.9443115450977       1078.8510371103037       1087.3023942704147       1092.817043108983
89.74358974358984         913.5225101471781        1056.357236694243        1075.1651302159305       1083.5753659121885       1089.0704713457058
90.59829059829069         910.4621003372988        1052.822181378897        1071.534011184413        1079.8988677330258       1085.3679723435039
91.45299145299153         907.4016905274195        1049.2871260635509       1067.9028921528954       1076.2223695538632       1081.665473341302
92.30769230769238         904.3412807175403        1045.752070748205        1064.271773121378        1072.5458713747005       1077.9629743391001
93.16239316239324         901.3192999144086        1042.2688209489459       1060.6952250882578       1068.920759536229        1074.3067021851684
94.0170940170941          898.2973191112768        1038.7855711496868       1057.1186770551374       1065.2956476977574       1070.6504300312365
94.87179487179495         895.275338308145         1035.3023213504277       1053.5421290220172       1061.6705358592858       1066.9941578773048
95.72649572649583         892.3116480771021        1031.8827294493165       1050.0290008878492       1058.1044965560923       1063.3919427466415
96.58119658119668         889.347957846059         1028.463137548205        1046.5158727536814       1054.5384572528988       1059.7897276159779
97.43589743589753         886.3842676150159        1025.0435456470934       1043.0027446195134       1050.9724179497052       1056.1875124853143
98.29059829059838         883.48409347884          1021.6883333874213       1039.556132083008        1047.4768110304256       1052.6609003380115
99.14529914529923         880.5839193426639        1018.333121127749        1036.1095195465025       1043.9812041111459       1049.1342881907085
100.00000000000009        877.6837452064877        1014.9779088680767       1032.662907009997        1040.4855971918662       1045.6076760434055
100.85470085470094        874.8188771913544        1011.6612332909682       1029.2591185507308       1037.0373627833515       1042.1328390605888
101.70940170940179        871.954009176221         1008.3445577138594       1025.8553300914646       1033.5891283748365       1038.6580020777722
102.56410256410264        869.0891411610876        1005.0278821367507       1022.4515416321983       1030.1408939663215       1035.1831650949555
103.41880341880349        866.2649454766796        1001.759593007005        1019.1017753694201       1026.7507199450572       1031.769052602834
104.27350427350433        863.4407497922714        998.4913038772593        1015.7520091066417       1023.3605459237928       1028.3549401107127
105.12820512820518        860.6165541078632        995.2230147475135        1012.4022428438633       1019.9703719025284       1024.9408276185914
105.98290598290605        857.8745284263761        992.0428798472154        1009.1491821404518       1016.6798123665087       1021.6257679038866
106.8376068376069         855.1325027448888        988.8627449469171        1005.8961214370402       1013.3892528304888       1018.3107081891818
107.69230769230775        852.3904770634016        985.6826100466188        1002.6430607336287       1010.098693294469        1014.995648474477
108.5470085470086         849.7036334152966        982.5622756118487        999.4544609134584        1006.8747980197139       1011.7497147751201
109.40170940170945        847.0167897671914        979.4419411770784        996.2658610932882        1003.6509027449587       1008.5037810757631
110.2564102564103         844.3299461190862        976.3216067423082        993.077261273118         1000.4270074702034       1005.2578473764061
111.11111111111119        841.6811343603763        973.2392406032588        989.9274818494896        997.2420588033996        1002.0510261723567
111.96581196581204        839.0323226016661        970.1568744642093        986.7777024258611        994.0571101365955        998.8442049683072
112.8205128205129         836.3835108429561        967.0745083251597        983.6279230022327        990.8721614697915        995.6373837642577
113.67521367521377        833.7778910393636        964.0408617157597        980.5304654237142        987.7403030235873        992.4830946496639
114.5299145299146         831.172271235771         961.0072151063595        977.4330078451956        984.608444577383         989.3288055350699
115.38461538461546        828.5666514321784        957.9735684969594        974.3355502666769        981.4765861311787        986.174516420476
116.23931623931632        826.0576863110969        955.0284326317077        971.3223841993475        978.4269567027599        983.1024426378293
117.09401709401718        823.5487211900152        952.083296766456         968.3092181320181        975.3773272743409        980.0303688551824
117.94871794871804        821.0397560689335        949.1381609012043        965.2960520646888        972.327697845922         976.9582950725354
118.8034188034189         818.5831601963926        946.2505014553277        962.3420874993632        969.3391213142658        973.9493494280312
119.65811965811973        816.1265643238515        943.3628420094511        959.3881229340375        966.3505447826094        970.9404037835267
120.51282051282058        813.6699684513105        940.4751825635745        956.4341583687119        963.361968250953         967.9314581390223
121.36752136752145        811.2599318414325        937.6433379793804        953.5405983659547        960.4366928346569        964.9873503659592
122.22222222222229        808.8498952315542        934.8114933951861        950.6470383631973        957.5114174183607        962.0432425928959
123.07692307692315        806.4398586216761        931.9796488109918        947.75347836044          954.5861420020644        959.0991348198327
123.93162393162402        804.0905578353903        929.2210280021443        944.9370486639921        951.739062388162         956.2328621714436
124.78632478632487        801.7412570491043        926.4624071932966        942.120618967544         948.8919827742593        953.3665895230542
125.64102564102572        799.3919562628183        923.703786384449         939.304189271096         946.0449031603567        950.5003168746649
126.49572649572657        797.15474020564          921.0691852493627        936.6227906033655        943.3402915368482        947.7812201105935
127.35042735042742        794.9175241484616        918.4345841142763        933.9413919356349        940.6356799133395        945.062123346522
128.2051282051283         792.6803080912831        915.79998297919          931.2599932679044        937.9310682898307        942.3430265824505
129.05982905982913        790.4966827209759        913.2263434340822        928.6438235142823        935.2929213378268        939.6896235605066
129.91452991453           788.3130573506684        910.6527038889744        926.0276537606601        932.6547743858227        937.0362205385625
130.76923076923083        786.129431980361         908.0790643438667        923.4114840070379        930.0166274338187        934.3828175166184
131.62393162393172        783.9944589647789        905.5595867343521        920.8497595019293        927.4305462019482        931.778348080578
132.47863247863256        781.8594859491966        903.0401091248375        918.2880349968206        924.8444649700776        929.1738786445375
133.33333333333346        779.7245129336144        900.5206315153229        915.726310491712         922.258383738207         926.5694092084971
134.1880341880343         777.6464812500349        898.0563363611927        913.2148674226686        919.7179639902461        924.0072951692568
135.04273504273513        775.5684495664551        895.5920412070625        910.7034243536252        917.1775442422851        921.4451811300165
135.89743589743597        773.4904178828754        893.1277460529324        908.1919812845819        914.6371244943241        918.8830670907763
136.75213675213686        771.5121968639256        890.7613577140282        905.7772937526331        912.1947594765511        916.4223263413643
137.6068376068377         769.5339758449758        888.394969375124         903.3626062206843        909.7523944587781        913.961585591952
138.46153846153857        767.555754826026         886.0285810362199        900.9479186887354        907.3100294410051        911.5008448425399
139.31623931623943        765.6286918180766        883.7240302268158        898.5980727362734        904.9323515727748        909.1026448856993
140.17094017094027        763.7016288101271        881.4194794174115        896.2482267838112        902.5546737045444        906.7044449288585
141.0256410256411         761.7745658021777        879.1149286080072        893.8983808313491        900.176995836314         904.3062449720177
141.88034188034197        759.8889565569692        876.8589730327682        891.5997619284699        897.8516807108853        901.9601756481438
142.73504273504284        758.0033473117608        874.603017457529         889.3011430255906        895.5263655854563        899.6141063242699
143.58974358974368        756.1177380665523        872.3470618822898        887.0025241227113        893.2010504600275        897.2680370003959
144.44444444444454        754.2796892603806        870.144581064429         884.7609069714644        890.9360892818005        894.9845239676314
145.29914529914538        752.4416404542087        867.942100246568         882.5192898202173        888.6711281035732        892.7010109348666
146.15384615384625        750.603591648037         865.739619428707         880.2776726689704        886.406166925346         890.417497902102
147.00854700854708        748.8447172131661        863.6249123788915        878.1285286730975        884.2364827040718        888.2324420971369
147.86324786324795        747.0858427782949        861.5102053290758        875.9793846772246        882.0667984827974        886.0473862921716
148.71794871794881        745.3269683434239        859.3954982792602        873.8302406813517        879.897114261523         883.8623304872063
149.57264957264968        743.6211116100388        857.3391837063115        871.7441374028889        877.7946361132631        881.7486687377323
150.42735042735052        741.9152548766536        855.2828691333626        869.6580341244261        875.692157965003         879.635006988258
151.28205128205138        740.2093981432685        853.2265545604138        867.5719308459633        873.589679816743         877.521345238784
152.13675213675225        738.5392714627087        851.2080117743167        865.523605929363         871.5247115861852        875.4451327407102
152.99145299145312        736.8691447821489        849.1894689882196        863.4752810127627        869.4597433556271        873.3689202426361
153.84615384615395        735.199018101589         847.1709262021225        861.4269560961625        867.394775125069         871.2927077445621
154.70085470085482        733.5681908777188        845.1961931697409        859.4221572299912        865.3726770042134        869.2593741291073
155.55555555555566        731.9373636538486        843.2214601373593        857.4173583638196        863.3505788833577        867.2260405136524
156.41025641025652        730.3065364299785        841.2467271049777        855.4125594976482        861.328480762502         865.1927068981975
157.26495726495742        728.7389773824016        839.3441675328869        853.4812198230544        859.3805641439767        863.2338664950666
158.11965811965828        727.1714183348246        837.4416079607959        851.5498801484604        857.4326475254513        861.2750260919356
158.97435897435915        725.6038592872476        835.5390483887049        849.6185404738663        855.484730906926         859.3161856888046
159.82905982906001        724.1015873543271        833.710899299852         847.7657716592877        853.6175759835215        857.4373739401002
160.68376068376082        722.5993154214066        831.882750210999         845.9130028447088        851.7504210601171        855.5585621913957
161.5384615384617         721.0970434884861        830.054601122146         844.06023403013          849.8832661367127        853.6797504426913
162.39316239316253        719.6306964473516        828.2672799506717        842.2493317815021        848.059415551514         851.8462643626154
163.2478632478634         718.1643494062171        826.4799587791973        840.4384295328739        846.2355649663152        850.0127782825394
164.10256410256423        716.6980023650826        824.692637607723         838.6275272842458        844.4117143811164        848.1792922024636
164.9572649572651         715.2635586590051        822.942757558575         836.8554367849097        842.62778592378          846.387019804637
165.81196581196593        713.8291149529274        821.1928775094268        835.0833462855734        840.8438574664435        844.5947474068103
166.66666666666677        712.3946712468498        819.4429974602788        833.3112557862372        839.0599290091071        842.8024750089836
167.5213675213676         710.9987762493852        817.7407650467918        831.5886493046476        837.3253963261808        841.0584855835402
168.37606837606847        709.6028812519204        816.0385326333047        829.8660428230579        835.5908636432545        839.3144961580967
169.2307692307693         708.2069862544557        814.3363002198176        828.1434363414683        833.8563309603281        837.5705067326533
170.0854700854702         706.8684999315344        812.7008507081902        826.4922252121152        832.1952141456651        835.8995869548257
170.94017094017104        705.5300136086131        811.0654011965626        824.841014082762         830.5340973310019        834.2286671769981
171.79487179487194        704.1915272856918        809.429951684935         823.1898029534087        828.8729805163389        832.5577473991706
172.6495726495728         702.900635733276         807.8461324712091        821.5900117450153        827.2652180263689        830.9429705707823