% Model:              Cav_Hex_Unif_flux_v5.1 - Base Case.mph
% Version:            COMSOL 5.5.0.359
% Date:               Oct 25 2021, 20:50
% Dimension:          1
% Nodes:              328
% Expressions:        5
% Description:        Line graph
% x                       Height                   Height                   Height                   Height                   Height
0                         507.8050931351263        643.5768023249955        755.98269281478          857.818248813703         950.3546339125812
0.07645259938837914       507.7745682529196        643.4049314069085        755.6307314146594        857.2606573255334        949.5756903304555
0.1529051987767583        507.74404337071286       643.2330604888215        755.2787700145387        856.7030658373636        948.7967467483295
0.22935779816513743       507.7135184885061        643.0611895707345        754.9268086144181        856.1454743491939        948.0178031662036
0.3058103975535166        507.6927367969195        642.9166108733677        754.6225445223635        855.6605019083045        947.3413437241754
0.38226299694189575       507.67195510533287       642.7720321760008        754.3182804303087        855.1755294674149        946.664884282147
0.4587155963302749        507.6511734137462        642.627453478634         754.0140163382541        854.6905570265253        945.9884248401186
0.5351681957186541        507.6264212569435        642.4782699933253        753.7139028988294        854.2243723536816        945.3503609345948
0.6116207951070333        507.6016691001407        642.3290865080164        753.4137894594045        853.7581876808378        944.712297029071
0.6880733944954125        507.57691694333795       642.1799030227075        753.1136760199797        853.2920030079939        944.0742331235472
0.7645259938837915        507.5491199389266        642.0276093187597        752.8180118206752        852.838721986335         943.4564685673979
0.8409785932721706        507.5213229345152        641.8753156148118        752.5223476213706        852.3854409646759        942.8387040112485
0.9174311926605496        507.49352593010383       641.723021910864         752.226683422066         851.9321599430169        942.2209394550991
0.993883792048929         507.4635797051001        641.5674826956969        751.9281277432711        851.4784362610245        941.6077218223495
1.0703363914373083        507.43363348009626       641.4119434805298        751.6295720644763        851.0247125790319        940.9945041895999
1.1467889908256874        507.40368725509245       641.2564042653627        751.3310163856814        850.5709888970393        940.3812865568502
1.2232415902140665        507.3703523742231        641.0947427768567        751.0275878035601        850.1163106465373        939.7724557804605
1.2996941896024456        507.3370174933537        640.9330812883508        750.7241592214386        849.661632396035         939.1636250040707
1.3761467889908248        507.3036826124843        640.7714197998448        750.4207306393172        849.2069541455328        938.5547942276809
1.4525993883792039        507.2665676535641        640.6013934906312        750.1078235144128        848.7440645019984        937.9403438675911
1.529051987767583         507.22945269464384       640.4313671814174        749.7949163895083        848.2811748584639        937.3258935075012
1.6055045871559621        507.1923377357236        640.2613408722036        749.4820092646039        847.8182852149296        936.7114431474114
1.6819571865443412        507.1506857239993        640.0898914385697        749.1756985707837        847.3708481317797        936.1207822084629
1.7584097859327201        507.109033712275         639.9184420049356        748.8693878769633        846.9234110486296        935.5301212695142
1.8348623853210992        507.0673817005507        639.7469925713016        748.5630771831429        846.4759739654796        934.9394603305657
1.9113149847094784        507.0198842379346        639.5669838666181        748.2493793994523        846.02355210413          934.3469420113101
1.9877675840978575        506.9723867753185        639.3869751619345        747.9356816157616        845.5711302427802        933.7544236920545
2.0642201834862366        506.9248893127024        639.206966457251         747.6219838320709        845.1187083814306        933.1619053727989
2.1406727828746157        506.8763169577045        639.024842097885         747.3067516462819        844.667421630197         932.5745371383558
2.217125382262995         506.82774460270656       638.8427177385188        746.9915194604928        844.2161348789634        931.9871689039127
2.293577981651374         506.77917224770863       638.6605933791526        746.6762872747038        843.7648481277299        931.3998006694695
2.370030581039753         506.7273219289906        638.4772622241904        746.3631861401718        843.3198995529884        930.8230515989454
2.446483180428132         506.6754716102725        638.2939310692283        746.0500850056397        842.8749509782468        930.2463025284212
2.5229357798165113        506.62362129155446       638.1105999142661        745.7369838711078        842.4300024035052        929.6695534578971
2.599388379204891         506.5690538397959        637.9296674315825        745.4327095637002        841.9998706302423        929.11314927214
2.6758409785932695        506.51448638803726       637.748734948899         745.1284352562925        841.5697388569793        928.5567450863829
2.7522935779816486        506.4599189362786        637.5678024662154        744.8241609488848        841.1396070837163        928.0003409006258
2.828746177370028         506.40288029493206       637.3865972680436        744.5240341451132        840.7182111316913        927.4567620890513
2.905198776758407         506.34584165358547       637.2053920698717        744.2239073413414        840.2968151796662        926.9131832774765
2.981651376146786         506.2888030122389        637.0241868716997        743.9237805375697        839.875419227641         926.3696044659018
3.058103975535165         506.2303623862929        636.8461165282179        743.6326486919907        839.4690262536704        925.847252699238
3.134556574923544         506.17192176034683       636.668046184736         743.3415168464115        839.0626332796998        925.3249009325739
3.2110091743119225        506.1134811344008        636.4899758412541        743.0503850008325        838.656240305729         924.8025491659098
3.287461773700302         506.05479385895916       636.3156679218354        742.767635369471         838.2633381610098        924.2990450465642
3.3639143730886816        505.99610658351753       636.1413600024165        742.4848857381094        837.8704360162903        923.7955409272183
3.4403669724770607        505.9374193080759        635.9670520829976        742.2021361067477        837.4775338715709        923.2920368078726
3.5168195718654403        505.88003719489495       635.7995800078993        741.9305556078893        837.0996786346697        922.807408612408
3.593272171253819         505.822655081714         635.6321079328011        741.6589751090308        836.7218233977683        922.3227804169433
3.6697247706421985        505.76527296853305       635.4646358577028        741.3873946101724        836.3439681608669        921.8381522214786
3.746177370030577         505.70721353072565       635.2977905337201        741.1180739029854        835.9702079103089        921.359445937948
3.822629969418956         505.6491540929182        635.1309452097373        740.8487531957984        835.5964476597508        920.8807396544172
3.8990825688073345        505.59109465511074       634.9640998857545        740.5794324886115        835.2226874091928        920.4020333708864
3.975535168195714         505.5325957264239        634.7997303327072        740.3166437058568        834.8601749230168        919.9398833555624
4.051987767584094         505.474096797737         634.6353607796598        740.053854923102         834.4976624368405        919.4777333402382
4.128440366972472         505.41559786905015       634.4709912266125        739.7910661403473        834.1351499506644        919.015583324914
4.204892966360853         505.35725323746937       634.3093348411919        739.532322321682         833.7778078037813        918.5600943922061
4.281345565749232         505.2989086058885        634.1476784557714        739.2735785030167        833.420465656898         918.104605459498
4.357798165137612         505.2405639743077        633.9860220703508        739.0148346843513        833.0631235100147        917.6491165267898
4.43425076452599          505.18284934325453       633.8290708341138        738.7646606194635        832.7183509761785        917.2103006379544
4.510703363914368         505.1251347122013        633.6721195978769        738.5144865545756        832.3735784423421        916.7714847491189
4.587155963302748         505.0674200811481        633.5151683616399        738.2643124896878        832.0288059085059        916.3326688602834
4.6636085626911274        505.0098209585525        633.3611867928471        738.0198014171344        831.6925418360594        915.9052569236474
4.740061162079507         504.9522218359568        633.2072052240542        737.7752903445811        831.3562777636128        915.4778449870112
4.816513761467887         504.89462271336106       633.0532236552613        737.5307792720278        831.0200136911662        915.050433050375
4.892966360856266         504.8369623512927        632.9015040515003        737.290747117838         830.6902402207221        914.6310694415702
4.969418960244645         504.7793019892243        632.7497844477392        737.0507149636481        830.3604667502779        914.2117058327652
5.045871559633024         504.7216416271559        632.5980648439782        736.8106828094584        830.0306932798336        913.7923422239603
5.122324159021403         504.6652591070231        632.4505302357312        736.5785050832249        829.7131096183111        913.3896104873163
5.198776758409782         504.6088765868902        632.302995627484         736.3463273569913        829.3955259567886        912.9868787506722
5.275229357798161         504.5524940667573        632.1554610192369        736.1141496307578        829.077942295266         912.5841470140281
5.351681957186541         504.4952703915333        632.0108571254576        735.8885031315256        828.7701431860527        912.1942666880369
5.4281345565749195        504.4380467163093        631.8662532316782        735.6628566322933        828.4623440768393        911.8043863620456
5.504587155963299         504.38082304108536       631.721649337899         735.437210133061         828.1545449676258        911.4145060360544
5.581039755351679         504.3230381115217        631.5807945657025        735.2192988848752        827.8579449216325        911.0392545181273
5.657492354740057         504.26525318195803       631.4399397935059        735.0013876366895        827.5613448756388        910.6640030002003
5.733944954128437         504.20746825239434       631.2990850213093        734.7834763885038        827.2647448296452        910.2887514822733
5.810397553516817         504.15057987105513       631.1612945582741        734.5706978787513        826.9757139671318        909.9237642398007
5.886850152905196         504.09369148971587       631.0235040952388        734.3579193689986        826.6866831046182        909.5587769973281
5.963302752293576         504.03680310837666       630.8857136322034        734.145140859246         826.3976522421046        909.1937897548555
6.039755351681955         503.9823504185486        630.7525323380231        733.9390309921613        826.1176539630044        908.8406517346301
6.116207951070334         503.92789772872055       630.6193510438428        733.7329211250765        825.837655683904         908.4875137144047
6.192660550458712         503.8734450388925        630.4861697496625        733.5268112579918        825.5576574048038        908.1343756941793
6.269113149847092         503.8185403526043        630.3545517465017        733.3253595235414        825.2865738004762        907.7944487304351
6.345565749235471         503.7636356663161        630.2229337433408        733.1239077890908        825.0154901961486        907.4545217666907
6.42201834862385          503.70873098002784       630.09131574018          732.9224560546404        824.744406591821         907.1145948029464
6.498470948012229         503.6548595652823        629.9636403265788        732.7276702341319        824.4826419339807        906.7865581096654
6.574923547400608         503.60098815053675       629.8359649129775        732.5328844136233        824.2208772761404        906.4585214163843
6.651376146788987         503.5471167357912        629.7082894993763        732.3380985931148        823.9591126183002        906.1304847231033
6.727828746177367         503.4945115487486        629.583418044421         732.1475346689178        823.7028488456825        905.8092593820994
6.804281345565746         503.441906361706         629.4585465894656        731.9569707447207        823.4465850730646        905.4880340410954
6.880733944954125         503.3893011746634        629.3336751345104        731.7664068205237        823.1903213004468        905.1668087000915
6.957186544342505         503.33805989404          629.2131850162405        731.5827179681306        822.9433151569567        904.8572570704696
7.033639143730884         503.28681861341653       629.0926948979704        731.3990291157374        822.6963090134664        904.5477054408475
7.110091743119264         503.2355773327931        628.9722047797005        731.2153402633444        822.4493028699761        904.2381538112254
7.186544342507643         503.1854580273082        628.854403139454         731.0357520442841        822.2078629505866        903.9357507998086
7.262996941896022         503.1353387218232        628.7366014992076        730.8561638252237        821.9664230311968        903.6333477883917
7.3394495412844005        503.0852194163382        628.6187998589611        730.6765756061634        821.724983111807         903.3309447769748
7.41590214067278          503.03695444344316       628.5060833525847        730.5047957812964        821.4940751626579        903.0417752483447
7.492354740061158         502.9886894705481        628.3933668462082        730.3330159564292        821.2631672135086        902.7526057197144
7.5688073394495365        502.940424497653         628.2806503398317        730.1612361315622        821.0322592643595        902.4634361910842
7.645259938837917         502.8938352580938        628.1720717048328        729.9956362702563        820.8096504629234        902.1847327156704
7.721712538226296         502.8472460185346        628.0634930698337        729.8300364089504        820.5870416614873        901.9060292402565
7.798165137614674         502.8006567789754        627.9549144348348        729.6644365476444        820.3644328600512        901.6273257648427
7.874617737003053         502.75542695647175       627.8503471596198        729.505587373003         820.1512178459141        901.3605309637003
7.9510703363914335        502.71019713396805       627.7457798844048        729.3467381983614        819.9380028317768        901.0937361625577
8.027522935779812         502.6649673114644        627.6412126091898        729.18788902372          819.7247878176396        900.826941361415
8.10397553516819          502.6205033667274        627.5391680314459        729.0334191837015        819.5177299052443        900.5679719335486
8.180428134556571         502.57603942199034       627.4371234537019        728.8789493436828        819.3106719928489        900.3090025056821
8.25688073394495          502.5315754772533        627.335078875958         728.7244795036643        819.1036140804536        900.0500330778157
8.33333333333333          502.4885260489635        627.2372362686012        728.576390442852         818.9051709823957        899.8019748862434
8.409785932721709         502.4454766206736        627.1393936612444        728.4283013820395        818.7067278843377        899.5539166946711
8.48623853211009          502.40242719238375       627.0415510538876        728.2802123212272        818.5082847862798        899.3058585030989
8.56269113149847          502.3605434510215        626.9473476869073        728.1377577679026        818.3175086307216        899.0675418986272
8.639143730886849         502.31865970965913       626.8531443199271        727.9953032145779        818.1267324751632        898.8292252941553
8.715596330275226         502.2767759682968        626.7589409529468        727.8528486612533        817.9359563196049        898.5909086896835
8.792048929663606         502.2363167974568        626.6683083805474        727.7160348908275        817.7531002853956        898.3628634138645
8.868501529051985         502.19585762661677       626.5776758081479        727.5792211204016        817.5702442511862        898.1348181380454
8.944954128440365         502.1553984557768        626.4870432357484        727.4424073499757        817.3873882169769        897.9067728622263
9.021406727828744         502.1159363047852        626.3986618977482        727.3090264266375        817.2092162769496        897.6846158370399
9.097859327217122         502.0764741537935        626.3102805597479        727.1756455032992        817.0310443369223        897.4624588118535
9.174311926605501         502.03701200280193       626.2218992217477        727.0422645799608        816.8528723968949        897.240301786667
9.250764525993882         501.99882763392793       626.1360796956479        726.9125433166236        816.67964357217          897.0245191779203
9.32721712538226          501.9606432650538        626.0502601695481        726.7828220532862        816.506414747445         896.8087365691733
9.40366972477064          501.92245889617976       625.9644406434483        726.6531007899489        816.33318592272          896.5929539604264
9.48012232415902          501.884826417858         625.8805252532036        726.5265270273425        816.1642397453995        896.3825507354605
9.556574923547396         501.8471939395361        625.7966098629589        726.3999532647359        815.9952935680789        896.1721475104946
9.633027522935775         501.80956146121423       625.7126944727142        726.2733795021294        815.8263473907582        895.9617442855287
9.709480122324157         501.772709778886         625.6315738616571        726.1513894325908        815.6636465781999        895.7592251202376
9.785932721712536         501.73585809655765       625.5504532505998        726.0293993630521        815.5009457656414        895.5567059549463
9.862385321100916         501.69900641422936       625.4693326395427        725.9074092935135        815.3382449530831        895.3541867896552
9.938837920489295         501.66331940559655       625.3910927944846        725.789644587235         815.181180385853         895.1586674837705
10.015290519877672        501.6276323969637        625.3128529494264        725.6718798809563        815.024115818623         894.9631481778856
10.09174311926605         501.5919453883308        625.2346131043683        725.5541151746777        814.867051251393         894.7676288720008
10.168195718654431        501.5575740131228        625.1595894623956        725.4412916396185        814.7166583178779        894.580491825985
10.24464831804281         501.52320263791466       625.0845658204228        725.3284681045591        814.5662653843626        894.3933547799688
10.321100917431188        501.4888312627066        625.00954217845          725.2156445694998        814.4158724508475        894.2062177339528
10.39755351681957         501.455404891313         624.9373005167113        725.1072960778301        814.2715391881703        894.0266660403535
10.47400611620795         501.42197851991926       624.8650588549724        724.9989475861604        814.127205925493         893.847114346754
10.55045871559633         501.38855214852555       624.7928171932335        724.8905990944907        813.9828726628157        893.6675626531545
10.626911314984708        501.3559885009079        624.7233035576495        724.7867634118065        813.844697467022         893.4957114929009
10.703363914373087        501.32342485329025       624.6537899220655        724.6829277291223        813.7065222712281        893.3238603326472
10.779816513761466        501.2908612056726        624.5842762864814        724.5790920464382        813.5683470754342        893.1520091723935
10.856269113149848        501.259383270751         624.5172400182025        724.4789322876375        813.435082206583         892.9862852730927
10.932721712538228        501.2279053358294        624.4502037499235        724.3787725288366        813.3018173377317        892.8205613737916
11.009174311926607        501.1964274009078        624.3831674816446        724.2786127700358        813.1685524688804        892.6548374744907
11.085626911314986        501.1660291631725        624.3186540422446        724.1822033914369        813.0403045999171        892.4953806265751
11.162079510703364        501.1356309254371        624.2541406028446        724.0857940128379        812.9120567309537        892.3359237786592
11.238532110091743        501.10523268770174       624.1896271634446        723.9893846342391        812.7838088619905        892.1764669307435
11.314984709480122        501.0760377829829        624.1274990631397        723.8966094656249        812.6604706851208        892.0231795468462
11.3914373088685          501.046842878264         624.0653709628347        723.8038342970106        812.5371325082511        891.8698921629489
11.467889908256879        501.0176479735451        624.0032428625298        723.7110591283963        812.4137943313815        891.7166047790515
11.54434250764526         500.9894308661625        623.9432947414222        723.6216484311321        812.2950316506481        891.5691055938886
11.620795107033638        500.96121375877976       623.8833466203146        723.5322377338679        812.1762689699145        891.4216064087256
11.697247706422019        500.93299665139705       623.823398499207         723.4428270366036        812.057506289181         891.2741072235625
11.773700305810399        500.90517871043073       623.7653197974583        723.3564569398819        811.9429319264576        891.1319653267818
11.850152905198776        500.87736076946436       623.7072410957096        723.2700868431602        811.828357563734         890.989823430001
11.926605504587156        500.849542828498         623.6491623939609        723.1837167464386        811.7137832010105        890.8476815332202
12.003058103975535        500.82252658817646       623.5931802749352        723.1007002926677        811.6038082834372        890.7113888937308
12.079510703363914        500.7955103478548        623.5371981559094        723.0176838388968        811.4938333658636        890.5750962542413
12.155963302752292        500.7684941075332        623.4812160368838        722.9346673851259        811.3838584482901        890.4388036147518
12.232415902140671        500.7420265890168        623.4270284889215        722.8544453326367        811.2776059431446        890.3071299907666
12.308868501529048        500.7155590705004        623.372840940959         722.7742232801475        811.1713534379991        890.1754563667813
12.385321100917428        500.68909155198395       623.3186533929967        722.6940012276582        811.0651009328536        890.043782742796
12.461773700305809        500.6636892374139        623.2666817986112        722.6170468472594        810.9631431246661        889.9174035524699
12.53822629969419         500.6382869228438        623.2147102042258        722.5400924668605        810.8611853164784        889.7910243621437
12.61467889908257         500.6128846082737        623.1627386098403        722.4631380864616        810.7592275082908        889.6646451718176
12.691131498470947        500.58834999951546       623.1126411302224        722.388999966017         810.661016885224         889.5429137225567
12.767584097859324        500.5638153907572        623.0625436506045        722.3148618455722        810.562806262157         889.4211822732957
12.844036697247702        500.53928078199897       623.0124461709867        722.2407237251274        810.46459563909          889.2994508240348
12.920489296636083        500.51573781792837       622.9643306713573        722.169441712026         810.3701211784996        889.1823030412737
12.996941896024461        500.4921948538577        622.9162151717279        722.0981596989245        810.275646717909         889.0651552585124
13.07339449541284         500.46865188978705       622.8680996720985        722.0268776858231        810.1811722573184        888.9480074757512
13.149847094801222        500.4459383169214        622.821661831827         721.958241655986         810.0903898804518        888.8355374501331
13.2262996941896          500.4232247440557        622.7752239915553        721.8896056261486        809.999607503585         888.7230674245147
13.30275229357798         500.40051117119003       622.7287861512838        721.8209695963114        809.9088251267184        888.6105973988965
13.37920489296636         500.3785356055266        622.683944841955         721.7548182604239        809.8214164834965        888.5023185698569
13.455657492354739        500.35656003986315       622.6391035326263        721.6886669245363        809.7340078402746        888.3940397408171
13.532110091743117        500.3345844741997        622.5942622232976        721.6225155886488        809.6465991970526        888.2857609117774
13.608562691131496        500.3132132559965        622.5511599833441        721.559145537229         809.5629348679051        888.1821785518529
13.685015290519877        500.2918420377933        622.5080577433905        721.4957754858092        809.4792705387575        888.0785961919281
13.761467889908255        500.27047081959006       622.464955503437         721.4324054343895        809.39560620961          887.9750138320035
13.837920489296636        500.24952207272673       622.4232620536911        721.3714879314068        809.3153270934718        887.8756760065958
13.914373088685014        500.2285733258633        622.3815686039453        721.3105704284241        809.2350479773332        887.7763381811878
13.990825688073393        500.20762457899986       622.3398751541995        721.2496529254414        809.1547688611947        887.6770003557799
14.067278287461773        500.18766534538975       622.2998622070293        721.1911608111179        809.0778351031909        887.5820864335732
14.143730886850152        500.1677061117796        622.259849259859         721.1326686967942        809.0009013451868        887.4871725113663
14.22018348623853         500.1477468781694        622.2198363126888        721.0741765824706        808.9239675871828        887.3922585891596
14.29663608562691         500.12838870622994       622.1808199790349        721.0171067622427        808.8490219357799        887.3000461559933
14.373088685015286        500.10903053429035       622.1418036453811        720.9600369420148        808.7740762843769        887.2078337228269
14.449541284403667        500.0896723623508        622.1027873117272        720.9029671217869        808.699130632974         887.1156212896605
14.525993883792047        500.07119335013016       622.0654764490548        720.848373433468         808.6274224042312        887.027370771703
14.602446483180424        500.05271433790944       622.0281655863823        720.7937797451492        808.5557141754883        886.9391202537454
14.678899082568805        500.0342353256887        621.9908547237098        720.7391860568304        808.4840059467456        886.8508697357879
14.755351681957185        500.0165966413257        621.955334182721         720.6871953969485        808.4156871256195        886.7667452244552
14.831804281345564        499.99895795696267       621.919813641732         720.6352047370666        808.3473683044931        886.6826207131224
14.908256880733942        499.98131927259965       621.8842931007432        720.5832140771847        808.2790494833667        886.5984962017897
14.984709480122321        499.96449752119725       621.8504453512837        720.5336484354194        808.2138902469093        886.5182261210739
15.061162079510696        499.9476757697948        621.8165976018242        720.484082793654         808.1487310104516        886.437956040358
15.137614678899075        499.9308540183923        621.7827498523648        720.4345171518887        808.083571773994         886.3576859596423
15.214067278287455        499.91456010997666       621.7500220127221        720.3865753577256        808.0205317137936        886.280007034557
15.290519877675834        499.8982662015609        621.7172941730794        720.3386335635624        807.9574916535931        886.2023281094718
15.366972477064216        499.88197229314517       621.6845663334367        720.2906917693992        807.8944515933927        886.1246491843865
15.443425076452595        499.86643986457693       621.6533340735514        720.2449343718248        807.8342694817405        886.0504741114999
15.519877675840972        499.8509074360086        621.622101813666         720.1991769742503        807.7740873700882        885.9762990386131
15.59633027522935         499.8353750074403        621.5908695537805        720.1534195766759        807.7139052584358        885.9021239657263