% Model:              Cav_Hex_Unif_flux_v5.1 - Base Case.mph
% Version:            COMSOL 5.5.0.359
% Date:               Oct 25 2021, 20:51
% Dimension:          1
% Nodes:              388
% Expressions:        5
% Description:        Line graph
% x                       Height                   Height                   Height                   Height                   Height
0                         620.3491919137167        771.4577329808136        873.5244815238096        957.643930206073         1030.048130114025
0.12919896640826892       620.3261209845627        771.2345677421695        873.0633017714733        956.9317739898449        1029.0836895617626
0.25839793281653783       620.3030500554088        771.0114025035253        872.6021220191368        956.2196177736168        1028.1192490095
0.3875968992248067        620.2799791262548        770.7882372648812        872.1409422668004        955.5074615573888        1027.1548084572373
0.5167958656330757        620.2927468599073        770.5970078230977        871.7082577910428        954.8256792310884        1026.2279920034525
0.6459948320413446        620.3055145935598        770.405778381314         871.2755733152851        954.1438969047881        1025.3011755496675
0.7751937984496134        620.3182823272123        770.2145489395305        870.8428888395275        953.4621145784878        1024.3743590958827
0.9043927648578824        620.3385464938373        770.0248885143125        870.4097150761171        952.7796599680954        1023.4481942976395
1.0335917312661513        620.3588106604623        769.8352280890942        869.9765413127067        952.0972053577029        1022.5220294993961
1.1627906976744202        620.3790748270873        769.645567663876         869.5433675492962        951.4147507473106        1021.5958647011528
1.2919896640826893        620.4080873823505        769.4645635640313        869.1253460805405        950.7585369881741        1020.7102904217257
1.4211886304909587        620.4370999376135        769.2835594641865        868.7073246117845        950.1023232290376        1019.8247161422986
1.5503875968992276        620.4661124928766        769.1025553643417        868.2893031430287        949.446109469901         1018.9391418628715
1.6795865633074964        620.4914335544058        768.9108501621824        867.8645878295183        948.7928331322655        1018.068398158004
1.808785529715765         620.516754615935         768.719144960023         867.4398725160077        948.13955679463          1017.1976544531365
1.9379844961240338        620.5420756774643        768.5274397578635        867.0151572024971        947.4862804569946        1016.326910748269
2.067183462532303         620.5571239822481        768.3087778592912        866.55830966895          946.8005995171989        1015.4249114726094
2.1963824289405722        620.5721722870318        768.0901159607189        866.1014621354026        946.1149185774032        1014.5229121969497
2.325581395348841         620.5872205918156        767.8714540621465        865.6446146018553        945.4292376376075        1013.62091292129
2.4547803617571096        620.5898029639098        767.6274200091033        865.1574157894855        944.7118424289283        1012.688200817549
2.5839793281653782        620.5923853360041        767.3833859560599        864.6702169771155        943.9944472202492        1011.7554887138078
2.713178294573647         620.5949677080984        767.1393519030165        864.1830181647456        943.27705201157          1010.8227766100667
2.842377260981916         620.5802798463759        766.860571932259         863.6556647034331        942.5183681375958        1009.8490018414939
2.9715762273901847        620.5655919846533        766.5817919615014        863.1283112421204        941.7596842636214        1008.8752270729208
3.1007751937984542        620.5509041229309        766.3030119907438        862.6009577808077        941.0010003896471        1007.9014523043478
3.229974160206723         620.5174969773096        765.9878599577013        862.031293180252         940.198792586187         1006.8854934502405
3.359173126614992         620.4840898316885        765.6727079246587        861.4616285796961        939.3965847827267        1005.869534596133
3.4883720930232607        620.4506826860672        765.3575558916161        860.8919639791403        938.5943769792665        1004.8535757420257
3.61757105943153          620.3950401540026        765.0080094736059        860.2886000836132        937.7616248663561        1003.8106123818286
3.7467700258397985        620.3393976219378        764.6584630555955        859.685236188086         936.9288727534455        1002.7676490216314
3.8759689922480676        620.283755089873         764.3089166375851        859.0818722925588        936.096120640535         1001.7246856614344
4.005167958656337         620.2092829484269        763.9375151802353        858.4647325694916        935.2601821284143        1000.6903383243998
4.134366925064606         620.1348108069807        763.5661137228855        857.8475928464243        934.4242436162933        999.655990987365
4.263565891472875         620.0603386655345        763.1947122655356        857.230453123357         933.5883051041724        998.6216436503303
4.392764857881145         619.9739435974424        762.8085579123888        856.6034735287425        932.7491221119119        997.5915410477246
4.521963824289413         619.8875485293503        762.4224035592417        855.9764939341278        931.9099391196513        996.5614384451187
4.651162790697682         619.8011534612582        762.0362492060948        855.3495143395131        931.0707561273908        995.5313358425129
4.780361757105951         619.7000837809776        761.6343752163788        854.7125196787624        930.2293025681812        994.5083478420038
4.909560723514219         619.5990141006969        761.2325012266625        854.0755250180116        929.3878490089714        993.4853598414945
5.038759689922489         619.4979444204163        760.8306272369464        853.4385303572608        928.5463954497618        992.4623718409854
5.167958656330757         619.3792716027956        760.4043524231793        852.780721295916         927.6907266579958        991.4324230339599
5.297157622739025         619.2605987851748        759.978077609412         852.1229122345711        926.8350578662296        990.4024742269345
5.426356589147294         619.141925967554         759.5518027956449        851.4651031732263        925.9793890744635        989.372525419909
5.555555555555563         619.0058981587644        759.096777986586         850.7730568130537        925.0848206596044        988.2985729071736
5.684754521963834         618.8698703499747        758.6417531775269        850.081010452881         924.190252244745         987.2246203944381
5.813953488372103         618.733842541185         758.1867283684679        849.3889640927082        923.2956838298858        986.1506678817027
5.943152454780371         618.5832945565952        757.717182102991         848.68483610625          922.3909539154487        985.0689539513639
6.07235142118864          618.4327465720053        757.247635837514         847.9807081197918        921.4862240010115        983.9872400210252
6.2015503875969085        618.2821985874155        756.7780895720372        847.2765801333336        920.5814940865743        982.9055260906864
6.330749354005178         618.1168195654221        756.2946220763464        846.5629521942099        919.6725625689317        981.825030666336
6.459948320413446         617.9514405434288        755.8111545806555        845.849324255086         918.7636310512889        980.7445352419855
6.5891472868217145        617.7860615214355        755.3276870849647        845.1356963159623        917.8546995336463        979.6640398176352
6.718346253229984         617.6102289630642        754.8373495915056        844.4203002150086        916.9486913570266        978.5900111236116
6.847545219638252         617.4343964046928        754.3470120980463        843.7049041140549        916.0426831804067        977.5159824295878
6.9767441860465205        617.2585638463215        753.856674604587         842.9895080131012        915.1366750037869        976.4419537355641
7.105943152454789         617.0754434966929        753.3674741094063        842.2835044653884        914.2469107108768        975.3898147184776
7.235142118863058         616.8923231470641        752.8782736142253        841.5775009176756        913.3571464179665        974.337675701391
7.364341085271327         616.7092027974353        752.3890731190445        840.8714973699628        912.4673821250562        973.2855366843045
7.493540051679596         616.5208298232368        751.9043221125457        840.179215291967         911.5997916521814        972.2644894290906
7.622739018087865         616.3324568490384        751.4195711060469        839.486933213971         910.7322011793063        971.2434421738768
7.751937984496134         616.1440838748399        750.9348200995481        838.7946511359752        909.8646107064313        970.222394918663
7.881136950904404         615.9509947573928        750.4563877236882        838.117739482946         909.0184782682684        969.2273047673173
8.010335917312672         615.7579056399456        749.9779553478281        837.4408278299168        908.1723458301052        968.2322146159714
8.139534883720941         615.5648165224985        749.4995229719681        836.7639161768876        907.326213391942         967.2371244646257
8.26873385012921          615.3692891236282        749.0268918696491        836.0998188768472        906.4996546614422        966.2673290228728
8.397932816537478         615.1737617247577        748.5542607673301        835.4357215768066        905.6730959309422        965.2975335811196
8.527131782945748         614.9782343258872        748.0816296650112        834.771624276766         904.8465372004422        964.3277381393666
8.656330749354016         614.7777265879998        747.6135763022065        834.1221884137299        904.0437060005391        963.3893318964439
8.785529715762287         614.5772188501123        747.1455229394018        833.4727525506936        903.240874800636         962.4509256535209
8.914728682170555         614.3767111122248        746.6774695765971        832.8233166876573        902.4380436007328        961.5125194105981
9.043927648578824         614.1732016480751        746.2143467863255        832.1846761066618        901.6508302429012        960.5937653238091
9.173126614987092         613.9696921839253        745.7512239960538        831.5460355256661        900.8636168850695        959.6750112370198
9.302325581395362         613.7661827197755        745.2881012057821        830.9073949446704        900.0764035272379        958.7562571502306
9.431524547803633         613.5602508326187        744.8299853228009        830.2799405997936        899.304443318995         957.8548430670041
9.560723514211901         613.354318945462         744.3718694398195        829.6524862549167        898.5324831107521        956.9534289837775
9.689922480620169         613.1483870583052        743.9137535568382        829.0250319100398        897.7605229025093        956.052014900551
9.819121447028438         612.9396721481206        743.4584950286585        828.4048067753913        897.0004461830958        955.1680245711865
9.948320413436704         612.730957237936         743.0032365004787        827.7845816407425        896.2403694636822        954.2840342418219
10.077519379844974        612.5222423277514        742.5479779722989        827.1643565060939        895.4802927442687        953.4000439124575
10.206718346253245        612.3134305099185        742.0981453879702        826.554390892793         894.7356608590762        952.5371612231017
10.335917312661513        612.1046186920854        741.6483128036415        825.9444252794918        893.9910289738837        951.6742785337459
10.465116279069782        611.8958068742525        741.1984802193127        825.3344596661907        893.2463970886911        950.8113958443902
10.594315245478052        611.6861160152598        740.7554216423379        824.7384864559612        892.5227603435663        949.975764103441
10.723514211886322        611.476425156267         740.3123630653629        824.1425132457314        891.7991235984415        949.1401323624916
10.85271317829459         611.2667342972743        739.8693044883879        823.5465400355017        891.0754868533166        948.3045006215423
10.981912144702857        611.0573343409997        739.4344790225057        822.9638044887153        890.369386129358         947.4905873891937
11.111111111111127        610.8479343847249        738.9996535566233        822.3810689419286        889.6632854053992        946.6766741568451
11.240310077519394        610.6385344284503        738.564828090741         821.798333395142         888.9571846814404        945.8627609244966
11.369509043927666        610.431921610971         738.139654119899         821.2300964230299        888.2704262796489        945.0732512971559
11.498708010335934        610.2253087934916        737.7144801490568        820.6618594509176        887.5836678778572        944.2837416698152
11.627906976744203        610.0186959760123        737.2893061782148        820.0936224788055        886.8969094760656        943.4942320424746
11.757105943152473        609.8131949812598        736.8717537166103        819.537195167467         886.2254321316345        942.7226785015902
11.886304909560739        609.6076939865072        736.4542012550058        818.9807678561283        885.5539547872035        941.9511249607056
12.01550387596901         609.4021929917548        736.0366487934014        818.4243405447897        884.8824774427724        941.179571419821
12.14470284237728         609.1997572899744        735.6296296980587        817.8837091163726        884.2315207387153        940.4329533415422
12.273901808785547        608.997321588194         735.2226106027159        817.3430776879553        883.5805640346582        939.6863352632632
12.403100775193817        608.7948858864137        734.8155915073733        816.802446259538         882.9296073306011        938.9397171849844
12.532299741602085        608.5943990378693        734.4155372667508        816.2724522533412        882.2920006830309        938.208147520509
12.661498708010352        608.3939121893247        734.0154830261283        815.7424582471442        881.6543940354607        937.4765778560334
12.790697674418618        608.1934253407803        733.6154287855059        815.2124642409474        881.0167873878904        936.7450081915579
12.91989664082689         607.9958394600665        733.2263162403531        814.6990895165592        880.4003859676752        936.0385355466076
13.04909560723516         607.7982535793527        732.8372036952002        814.1857147921709        879.7839845474599        935.3320629016572
13.178294573643429        607.6006676986389        732.4480911500473        813.6723400677826        879.1675831272447        934.6255902567069
13.307493540051702        607.4061189700816        732.0685307479005        813.1721436591182        878.5669058823817        933.9368850799292
13.436692506459968        607.2115702415242        731.6889703457535        812.6719472504537        877.9662286375185        933.2481799031514
13.565891472868238        607.017021512967         731.3094099436067        812.1717508417893        877.3655513926553        932.5594747263735
13.695090439276505        606.8246325416889        730.9411048221177        811.6884023794847        876.7862129315374        931.8963247168701
13.824289405684771        606.6322435704108        730.5727997006286        811.2050539171801        876.2068744704194        931.2331747073665
13.95348837209304         606.4398545991327        730.2044945791396        810.7217054548754        875.6275360093014        930.570024697863
14.08268733850131         606.2503910913991        729.8450822951945        810.2512557700561        875.0644575713463        929.925853758433
14.21188630490958         606.0609275836656        729.4856700112493        809.7808060852367        874.5013791333912        929.281682819003
14.341085271317848        605.8714640759321        729.1262577273042        809.3103564004174        873.9383006954362        928.6375118795729
14.470284237726116        605.6851857371772        728.7737113055723        808.8490828026221        873.3861491825237        928.0057860804908
14.599483204134383        605.4989073984223        728.4211648838403        808.3878092048267        872.8339976696111        927.3740602814086
14.72868217054265         605.3126290596674        728.0686184621084        807.9265356070313        872.2818461566986        926.7423344823263
14.85788113695092         605.1291424973832        727.7232007726694        807.4738648018647        871.7389914157183        926.1205301767947
14.987080103359192        604.9456559350989        727.3777830832305        807.0211939966981        871.1961366747378        925.4987258712629
15.116279069767462        604.7621693728147        727.0323653937916        806.5685231915315        870.6532819337573        924.8769215657311
15.245478036175733        604.5821940814033        726.6972648581137        806.1308197412951        870.1294933568134        924.2778719964784
15.374677002583999        604.4022187899917        726.3621643224358        805.6931162910586        869.6057047798695        923.6788224272257
15.503875968992265        604.2222434985802        726.0270637867579        805.2554128408221        869.0819162029255        923.079772857973
15.633074935400534        604.0453064088757        725.7017462714151        804.832115142768         868.5762659364312        922.5019960149114
15.762273901808802        603.8683693191713        725.3764287560723        804.4088174447136        868.0706156699368        921.9242191718496
15.891472868217072        603.6914322294668        725.0511112407295        803.9855197466593        867.5649654034424        921.3464423287879
16.02067183462534         603.5176834156508        724.7350282969803        803.5756982316291        867.0760925763078        920.7881814769994
16.149870801033607        603.3439346018347        724.4189453532312        803.1658767165986        866.587219749173         920.2299206252106
16.279069767441875        603.1701857880187        724.102862409482         802.7560552015683        866.0983469220382        919.6716597734219
16.408268733850143        603.0001426901459        723.7966303782723        802.3595671255852        865.6256123507077        919.1319862557231
16.537467700258414        602.8300995922731        723.4903983470626        801.9630790496019        865.1528777793769        918.592312738024
16.666666666666682        602.6600564944002        723.184166315853         801.5665909736186        864.6801432080462        918.0526392203251
16.795865633074953        602.4935491033528        722.8867723108324        801.1822151745657        864.2222037178467        917.5300459938434
16.92506459948322         602.3270417123055        722.5893783058118        800.7978393755128        863.7642642276471        917.0074527673615
17.05426356589149         602.1605343212581        722.2919843007912        800.4134635764599        863.3063247374475        916.4848595408798
17.18346253229976         601.9983740971802        722.0035590727198        800.0410324923902        862.8628497893164        915.9789351483075
17.312661498708025        601.8362138731022        721.7151338446482        799.6686014083203        862.4193748411851        915.4730107557351
17.441860465116292        601.6740536490244        721.4267086165768        799.2961703242506        861.9758998930539        914.9670863631628
17.57105943152456         601.5156705548169        721.1467094146083        798.9350730707179        861.5461680979307        914.4770079770726
17.700258397932828        601.3572874606094        720.8667102126396        798.5739758171849        861.1164363028073        913.9869295909822
17.829457364341096        601.198904366402         720.5867110106711        798.212878563652         860.686704507684         913.4968512048918
17.958656330749367        601.0443889445914        720.315239174626         797.8631993550429        860.2707495507022        913.0225668851575
18.087855297157635        600.8898735227808        720.0437673385807        797.5135201464335        859.8547945937204        912.5482825654232
18.217054263565906        600.7353581009702        719.7722955025355        797.1638409378243        859.4388396367385        912.0739982456888
18.346253229974177        600.5849475564657        719.5087334121633        796.8242580000034        859.0347150584987        911.6130675064222
18.47545219638245         600.4345370119612        719.2451713217911        796.4846750621823        858.6305904802589        911.1521367671555
18.604651162790717        600.2841264674566        718.9816092314189        796.1450921243613        858.2264659020191        910.6912060278888
18.733850129198988        600.1375826385367        718.7248957168842        795.8144394701965        857.8334130884837        910.2434788366342
18.863049095607256        599.9910388096168        718.4681822023493        795.4837868160314        857.4403602749483        909.7957516453794
18.99224806201552         599.8444949806969        718.2114686878145        795.1531341618663        857.0473074614129        909.3480244541246
19.12144702842379         599.7016647874548        717.9618230081047        794.8318819867885        856.6658642198325        908.9139568363233
19.250645994832063        599.5588345942127        717.7121773283947        794.5106298117106        856.2844209782521        908.4798892185219
19.379844961240327        599.4160044009706        717.4625316486847        794.1893776366327        855.9029777366718        908.0458216007205
19.509043927648598        599.2770523182422        717.2208679806351        793.878525867884         855.5337991973216        907.6256131537665
19.638242894056862        599.1381002355138        716.9792043125855        793.5676740991352        855.1646206579712        907.2054047068124
19.767441860465134        598.9991481527853        716.7375406445359        793.2568223303864        854.7954421186208        906.7851962598584
19.896640826873405        598.8622476181765        716.5012717745241        792.9543438932958        854.4372370420087        906.3777992743675
20.025839793281673        598.7253470835676        716.2650029045121        792.6518654562051        854.0790319653966        905.9704022888765
20.155038759689944        598.5884465489587        716.0287340345003        792.3493870191144        853.7208268887845        905.5630053033855
20.284237726098212        598.4551988908395        715.7994840058282        792.0563461231264        853.3740892970595        905.1686886990007
20.413436692506483        598.3219512327203        715.570233977156         791.7633052271385        853.0273517053346        904.7743720946157
20.54263565891475         598.188703574601         715.3409839484839        791.4702643311506        852.6806141136096        904.3800554902308
20.671834625323022        598.0579843533442        715.1184699278468        791.1862791301429        852.3445028806033        903.9976643795673
20.801033591731287        597.9272651320873        714.8959559072097        790.9022939291351        852.0083916475969        903.6152732689035
20.93023255813955         597.7965459108304        714.6734418865726        790.6183087281273        851.6722804145905        903.2328821582398
21.059431524547822        597.6684153265684        714.4565882886865        790.341598655737         851.3452592213907        902.8619855110622
21.18863049095609         597.5402847423064        714.2397346908002        790.0648885833466        851.0182380281908        902.4910888638844
21.317829457364358        597.4121541580444        714.0228810929141        789.7881785109562        850.6912168349909        902.1201922167066
21.44702842377263         597.2859473439783        713.80983911718          789.5172361860162        850.3722946189866        901.7598520557652
21.576227390180897        597.159740529912         713.5967971414459        789.2462938610761        850.0533724029822        901.3995118948237
21.705426356589168        597.0335337158459        713.3837551657118        788.9753515361359        849.7344501869778        901.0391717338823
21.83462532299744         596.9102653648058        713.1765015416574        788.7126332801414        849.425888209138         900.6907870206772
21.9638242894057          596.7869970137656        712.9692479176031        788.4499150241467        849.117326231298         900.3424023074721
22.09302325581397         596.6637286627255        712.7619942935487        788.187196768152         848.8087642534581        899.994017594267
22.22222222222224         596.5442310180792        712.5616538052255        787.9329886878551        848.5098910003671        899.6563492827186
22.35142118863051         596.4247333734329        712.3613133169023        787.6787806075579        848.2110177472761        899.3186809711699
22.48062015503878         596.3052357287867        712.160972828579         787.4245725272608        847.912144494185         898.9810126596212
22.60981912144705         596.1892051122182        711.9673440562805        787.1790491999351        847.6234797420225        898.6547818447848
22.73901808785532         596.0731744956498        711.7737152839817        786.9335258726093        847.3348149898599        898.3285510299481
22.868217054263592        595.9571438790814        711.580086511683         786.6880025452834        847.0461502376972        898.0023202151116
22.99741602067186         595.8430891074763        711.3914861582124        786.449667392189         846.7662237217284        897.6859835474477
23.126614987080124        595.7290343358711        711.2028858047416        786.2113322390943        846.4862972057592        897.3696468797837
23.25581395348839         595.6149795642659        711.014285451271         785.9729970859997        846.2063706897902        897.0533102121196
23.385012919896663        595.5032552328582        710.8307088835273        785.7419116245298        845.9354923958565        896.7473635477859
23.51421188630493         595.3915309014506        710.6471323157836        785.5108261630598        845.6646141019226        896.4414168834519
23.643410852713203        595.2798065700429        710.4635557480398        785.2797407015898        845.3937358079886        896.135470219118
23.772609819121474        595.1705800539916        710.285164286245         785.0553590429957        845.1306463788518        895.8382345917943
23.901808785529735        595.0613535379402        710.1067728244501        784.8309773844015        844.8675569497148        895.5409989644703
24.031007751938002        594.9521270218889        709.9283813626553        784.6065957258074        844.6044675205778        895.2437633371463
24.160206718346274        594.8455911885437        709.7557305913674        784.3895684288289        844.3500114901017        894.9563462519887
24.289405684754545        594.7390553551985        709.5830798200794        784.17254113185          844.0955554596254        894.668929166831
24.418604651162813        594.6325195218533        709.4104290487915        783.9555138348712        843.8410994291493        894.3815120816733
24.547803617571084        594.5286158237955        709.2429135807187        783.745080261659         843.5944402632937        894.1029978674336
24.67700258397935         594.4247121257375        709.0753981126458        783.5346466884467        843.347781097438         893.8244836531937
24.806201550387616        594.3208084276796        708.907882644573         783.3242131152346        843.1011219315823        893.5459694389539
24.935400516795887        594.2189100904435        708.744690142478         783.1193636267886        842.8610518102189        893.2749853546318
25.064599483204155        594.1170117532075        708.581497640383         782.9145141383427        842.6209816888554        893.0040012703096
25.193798449612423        594.0151134159714        708.4183051382879        782.7096646498968        842.3809115674919        892.7330171859874
25.322997416020694        593.9153118682382        708.26019920144          782.5116409451189        842.1488846655969        892.471026376447
25.45219638242896         593.8155103205048        708.1020932645919        782.3136172403409        841.9168577637018        892.2090355669064
25.581395348837233        593.7157087727716        707.9439873277439        782.115593535563         841.6848308618067        891.9470447573659
25.7105943152455          593.6183632094915        707.7906570576122        781.9236602661787        841.4598914031557        891.6929321646207
25.83979328165377         593.5210176462115        707.6373267874803        781.7317269967944        841.2349519445045        891.4388195718753
25.968992248062037        593.4236720829314        707.4839965173485        781.53979372741          841.0100124858533        891.18470697913
26.098191214470308        593.3294814823466        707.3362162686196        781.3548758520619        840.7931448633142        890.9393706951823
26.227390180878576        593.2352908817618        707.1884360198907        781.1699579767137        840.576277240775         890.6940344112344
26.356589147286847        593.1411002811769        707.0406557711617        780.9850401013655        840.3594096182359        890.4486981272864