% Model:              Cav_Hex_Unif_flux_v5.1 - Base Case.mph
% Version:            COMSOL 5.5.0.359
% Date:               Oct 25 2021, 20:52
% Dimension:          1
% Nodes:              430
% Expressions:        5
% Description:        Line graph
% x                       Height                   Height                   Height                   Height                   Height
0                         767.7059410650618        952.4555992619621        1047.7094481605009       1115.2697334560262       1168.640262135498
0.2331002331002331        767.7757513497089        952.1223265856723        1046.8840430777093       1113.9385965989252       1166.809672181111
0.4662004662004662        767.8455616343559        951.7890539093826        1046.0586379949177       1112.6074597418242       1164.979082226724
0.6993006993006993        767.9153719190031        951.4557812330928        1045.2332329121261       1111.2763228847232       1163.1484922723369
0.9324009324009324        768.1402363054641        951.3651998785772        1044.7379656300654       1110.373572908311        1161.8540333166295
1.1655011655011656        768.365100691925         951.2746185240616        1044.242698348005        1109.4708229318985       1160.559574360922
1.3986013986013985        768.5899650783861        951.184037169546         1043.7474310659443       1108.568072955486        1159.2651154052144
1.6317016317016317        768.8955561123681        951.2115655771           1043.4238490221762       1107.9021677288863       1158.278517845869
1.8648018648018643        769.2011471463501        951.239093984654         1043.100266978408        1107.2362625022863       1157.2919202865235
2.0979020979020975        769.506738180332         951.2666223922081        1042.77668493464         1106.5703572756865       1156.305322727178
2.3310023310023307        769.8334403451003        951.2967311642473        1042.4578175168874       1105.9238070836484       1155.3599802158176
2.5641025641025634        770.1601425098683        951.3268399362862        1042.138950099135        1105.2772568916103       1154.4146377044574
2.797202797202796         770.4868446746362        951.3569487083251        1041.8200826813825       1104.630706699572        1153.469295193097
3.03030303030303          770.8127850592422        951.3672504693585        1041.4970454288405       1104.0115104765569       1152.5895475605046
3.2634032634032635        771.138725443848         951.3775522303916        1041.1740081762985       1103.3923142535414       1151.709799927912
3.4965034965034967        771.4646658284539        951.3878539914249        1040.8509709237564       1102.773118030526        1150.8300522953195
3.7296037296037294        771.7516131298493        951.2951943173475        1040.3981199919217       1102.010904421306        1149.8007233697865
3.962703962703962         772.0385604312446        951.2025346432699        1039.9452690600867       1101.2486908120857       1148.7713944442535
4.195804195804195         772.32550773264          951.1098749691924        1039.492418128252        1100.4864772028657       1147.7420655187204
4.428904428904428         772.5530780143517        950.8838264622034        1038.87603751071         1099.5488763920862       1146.5352383898926
4.6620046620046605        772.7806482960634        950.6577779552142        1038.2596568931679       1098.6112755813067       1145.3284112610645
4.895104895104893         773.0082185777752        950.4317294482252        1037.6432762756258       1097.6736747705272       1144.1215841322366
5.128205128205128         773.1768971820643        950.1010778897249        1036.9165429342793       1096.6310867120083       1142.8173390588313
5.3613053613053605        773.3455757863532        949.7704263312246        1036.1898095929328       1095.588498653489        1141.5130939854257
5.594405594405594         773.514254390642         949.4397747727243        1035.4630762515862       1094.5459105949699       1140.2088489120204
5.827505827505827         773.6022607910814        948.9590565254335        1034.5648516491094       1093.3244890218393       1138.7225748785802
6.060606060606059         773.6902671915208        948.4783382781427        1033.6666270466324       1092.1030674487088       1137.2363008451398
6.2937062937062915        773.7782735919601        947.9976200308519        1032.7684024441553       1090.8816458755782       1135.7500268116996
6.526806526806525         773.7786310931123        947.359060179009         1031.6936230988974       1089.4853364422559       1134.1029122179996
6.759906759906759         773.7789885942642        946.7205003271661        1030.6188437536396       1088.0890270089333       1132.4557976242997
6.9930069930069925        773.7793460954163        946.0819404753231        1029.5440644083817       1086.6927175756107       1130.8086830305997
7.226107226107226         773.7137303555489        945.3334309900492        1028.3471598443266       1085.1698856979986       1129.033342287404
7.459207459207458         773.6481146156815        944.5849215047754        1027.1502552802713       1083.6470538203866       1127.2580015442081
7.692307692307692         773.582498875814         943.8364120195015        1025.9533507162162       1082.1242219427745       1125.4826608010123
7.925407925407924         773.4302153571408        942.9599322954024        1024.6297278326188       1080.484024550069        1123.6016299074001
8.158508158508157         773.2779318384675        942.0834525713033        1023.3061049490212       1078.8438271573636       1121.720599013788
8.391608391608388         773.1256483197942        941.2069728472042        1021.9824820654237       1077.2036297646582       1119.8395681201757
8.624708624708623         772.8882074269305        940.1991272690766        1020.5172855637974       1075.4190949694525       1117.8127415366014
8.857808857808857         772.6507665340667        939.1912816909489        1019.0520890621708       1073.6345601742466       1115.7859149530268
9.09090909090909          772.413325641203         938.1834361128214        1017.5868925605442       1071.850025379041        1113.7590883694525
9.324009324009324         772.1048808639578        937.080531824833         1016.0266842133949       1069.9729776783827       1111.641734718076
9.557109557109555         771.7964360867124        935.9776275368445        1014.4664758662454       1068.0959299777242       1109.5243810666993
9.79020979020979          771.4879913094671        934.874723248856         1012.906267519096        1066.2188822770659       1107.4070274153228
10.023310023310023        771.1197996128209        933.6946336565239        1011.270684823343        1064.267752786194        1105.2159912596082
10.256410256410257        770.7516079161745        932.5145440641918        1009.6351021275898       1062.316623295322        1103.024955103894
10.48951048951049         770.3834162195282        931.3344544718597        1007.9995194318367       1060.3654938044501       1100.8339189481794
10.722610722610721        769.9720174753121        930.1060738826209        1006.320034647493        1058.3752159036032       1098.6078625716566
10.955710955710956        769.5606187310958        928.877693293382         1004.6405498631491       1056.3849380027564       1096.3818061951335
11.188811188811187        769.1492199868796        927.6493127041432        1002.9610650788052       1054.3946601019095       1094.1557498186105
11.42191142191142         768.6813964701154        926.369039580584         1001.246858347038        1052.3845205271339       1091.9194964032822
11.65501165501165         768.2135729533509        925.0887664570246        999.5326516152708        1050.3743809523583       1089.683242987954
11.888111888111883        767.7457494365865        923.8084933334652        997.8184448835035        1048.3642413775826       1087.4469895726256
12.121212121212116        767.2384020999978        922.4976462616568        996.0946038881904        1046.3641057286793       1085.236696873383
12.35431235431235         766.7310547634089        921.1867991898481        994.370762892877         1044.3639700797758       1083.02640417414
12.587412587412583        766.2237074268202        919.8759521180395        992.6469218975637        1042.3638344308724       1080.8161114748973
12.820512820512816        765.6763328868383        918.5380633042525        990.9113814263247        1040.3653501332294       1078.6202000581243
13.053613053613049        765.1289583468563        917.2001744904654        989.1758409550855        1038.3668658355864       1076.4242886413513
13.286713286713281        764.5815838068743        915.8622856766783        987.4403004838463        1036.3683815379434       1074.2283772245783
13.519813519813518        763.9971088081363        914.5108126703618        985.7094054463436        1034.386904162045        1072.0574085830156
13.75291375291375         763.4126338093984        913.1593396640451        983.9785104088407        1032.405426786147        1069.8864399414526
13.986013986013985        762.8281588106604        911.8078666577284        982.2476153713379        1030.4239494102487       1067.7154712998897
14.219114219114218        762.220633792145         910.4417955537463        980.5056211590788        1028.4316710547296       1065.533237271279
14.452214452214449        761.6131087736295        909.0757244497639        978.7636269468195        1026.4393926992102       1063.3510032426682
14.68531468531468         761.005583755114         907.7096533457817        977.0216327345602        1024.4471143436908       1061.1687692140574
14.918414918414914        760.3686629353201        906.3290437060543        975.2768173966061        1022.4595965584328       1058.9967565701902
15.151515151515147        759.7317421155261        904.9484340663267        973.5320020586519        1020.4720787731748       1056.8247439263228
15.38461538461538         759.0948212957322        903.5678244265993        971.7871867206977        1018.4845609879168       1054.6527312824553
15.617715617715614        758.4415289401537        902.1982459793762        970.0726054463638        1016.5406835973706       1052.5344263740474
15.850815850815845        757.7882365845751        900.8286675321531        968.3580241720298        1014.5968062068243       1050.4161214656394
16.08391608391608         757.1349442289965        899.4590890849299        966.6434428976959        1012.6529288162781       1048.2978165572315
16.317016317016314        756.4703090538397        898.1009152758802        964.9551605879983        1010.7465407057309       1046.226904033173
16.55011655011654         755.8056738786829        896.7427414668302        963.2668782783007        1008.8401525951836       1044.1559915091145
16.783216783216776        755.1410387035262        895.3845676577803        961.5785959686032        1006.9337644846363       1042.085078985056
17.01631701631701         754.4644986193357        894.0378008775497        959.9174525018608        1005.0635766117467       1040.0555434861406
17.24941724941724         753.7879585351452        892.691034097319         958.2563090351184        1003.193388738857        1038.0260079872248
17.482517482517476        753.1114184509547        891.3442673170883        956.595165568376         1001.3232008659674       1035.9964724883093
17.71561771561771         752.4253392766841        890.0090474919177        954.959626552258         999.4872309770062        1034.0068614151444
17.948717948717942        751.7392601024134        888.673827666747         953.3240875361399        997.651261088045         1032.0172503419792
18.181818181818173        751.0531809281428        887.3386078415764        951.6885485200219        995.8152911990837        1030.0276392688143
18.41491841491841         750.3583743487059        886.0224628470424        950.0888132690883        994.0280714742705        1028.0980138971954
18.648018648018645        749.6635677692689        884.7063178525083        948.4890780181546        992.2408517494573        1026.1683885255763
18.881118881118876        748.968761189832         883.3901728579742        946.8893427672209        990.4536320246441        1024.2387631539575
19.11421911421911         748.2645186390123        882.0908395991386        945.321148836135         988.7076061285494        1022.3564554485515
19.347319347319342        747.5602760881925        880.7915063403028        943.7529549050489        986.9615802324546        1020.4741477431455
19.580419580419576        746.8560335373727        879.4921730814671        942.1847609739629        985.2155543363599        1018.5918400377395
19.813519813519807        746.1462761286972        878.2070393204052        940.6418896695509        983.503593098582         1016.7525523836854
20.04662004662004         745.4365187200215        876.9219055593433        939.0990183651387        981.7916318608039        1014.9132647296311
20.279720279720273        744.7267613113459        875.6367717982813        937.5561470607266        980.0796706230259        1013.073977075577
20.51282051282051         744.0078664546464        874.3610478556537        936.0321401228149        978.3937877443402        1011.26692927313
20.745920745920742        743.2889715979468        873.0853239130261        934.5081331849029        976.7079048656544        1009.4598814706828
20.979020979020977        742.5700767412472        871.8095999703984        932.984126246991         975.0220219869688        1007.6528336682356
21.21212121212121         741.8513480208608        870.5531166682865        931.4901645541568        973.3718073707923        1005.8833274211888
21.445221445221442        741.1326193004742        869.2966333661745        929.9962028613224        971.7215927546158        1004.1138211741418
21.678321678321677        740.4138905800876        868.0401500640626        928.5022411684882        970.0713781384393        1002.3443149270948
21.91142191142191         739.6932653461304        866.7986908500131        927.0311710452419        968.4487759705307        1000.6056537309896
22.144522144522142        738.972640112173         865.5572316359636        925.5601009219955        966.8261738026222        998.8669925348843
22.377622377622373        738.2520148782157        864.3157724219142        924.0890307987491        965.2035716347136        997.128331338779
22.610722610722608        737.5332319207606        863.0959410403235        922.647970435655         963.6156335577377        995.4271036908377
22.84382284382284         736.8144489633054        861.8761096587327        921.2069100725607        962.0276954807617        993.7258760428963
23.07692307692307         736.0956660058501        860.656278277142         919.7658497094665        960.4397574037858        992.0246483949549
23.3100233100233          735.3849387301167        859.4672407278254        918.3672186210904        958.9020696022931        990.3792576314866
23.54312354312353         734.674211454383         858.2782031785088        916.9685875327142        957.3643818008001        988.7338668680181
23.776223776223766        733.9634841786494        857.0891656291922        915.5699564443381        955.826693999307         987.0884761045498
24.009324009324           733.2569911322927        855.931465959512         914.2167388730793        954.3434232638717        985.504156427027
24.242424242424235        732.5504980859358        854.7737662898319        912.8635213018204        952.8601525284362        983.9198367495043
24.47552447552447         731.844005039579         853.6160666201517        911.5103037305615        951.3768817930007        982.3355170719815
24.708624708624708        731.1376466753408        852.4768878696098        910.186475327593         949.9314708409823        980.7974995020139
24.94172494172493         730.4312883111025        851.3377091190677        908.8626469246243        948.4860598889637        979.2594819320464
25.174825174825166        729.7249299468643        850.1985303685257        907.5388185216556        947.0406489369452        977.7214643620788
25.4079254079254          729.0257208715066        849.0792250149301        906.2395490275585        945.6224596722701        976.2122790290373
25.641025641025628        728.3265117961487        847.9599196613343        904.9402795334613        944.2042704075948        974.7030936959957
25.87412587412586         727.6273027207909        846.8406143077386        903.6410100393641        942.7860811429196        973.1939083629541
26.1072261072261          726.9347968964022        845.7460535450509        902.3757657008701        941.4088712233735        971.731559270588
26.340326340326335        726.2422910720132        844.651492782363         901.110521362376         940.0316613038273        970.2692101782219
26.573426573426566        725.5497852476244        843.5569320196751        899.8452770238819        938.6544513842812        968.8068610858558
26.8065268065268          724.8641187375327        842.4869444779566        898.6133650182499        937.3161219857357        967.3878748182203
27.03962703962703         724.1784522274409        841.4169569362381        897.3814530126176        935.9777925871902        965.9688885505847
27.272727272727263        723.4927857173491        840.3469693945196        896.1495410069855        934.6394631886446        964.5499022829491
27.505827505827494        722.8153370338789        839.3039185179576        894.9518971364861        933.3392552426853        963.17189985463
27.73892773892773         722.1378883504086        838.2608676413955        893.7542532659866        932.0390472967259        961.7938974263108
27.97202797202796         721.4604396669384        837.2178167648334        892.556609395487         930.7388393507666        960.4158949979915
28.205128205128194        720.796038006539         836.2012498218055        891.3894126485006        929.4709558963718        959.071276400947
28.438228438228425        720.1316363461395        835.1846828787774        890.2222159015141        928.2030724419768        957.7266578039023
28.67132867132866         719.4672346857401        834.1681159357494        889.0550191545276        926.9351889875819        956.3820392068577
28.904428904428894        718.8159064278377        833.1803516359244        887.923705542632         925.7083727540875        955.0824020696145
29.13752913752912         718.1645781699352        832.1925873360992        886.7923919307361        924.4815565205929        953.7827649323712
29.370629370629352        717.5132499120328        831.2048230362742        885.6610783188404        923.2547402870983        952.4831277951279
29.60372960372959         716.8732294852581        830.2462621440437        884.5659086018513        922.0685766051403        951.2275241601169
29.83682983682982         716.2332090584833        829.2877012518131        883.470738884862         920.8824129231821        949.9719205251058
30.069930069930056        715.5931886317086        828.3291403595827        882.3755691678729        919.6962492412239        948.7163168900947
30.30303030303029         714.9616168680357        827.3887092184335        881.3000122089463        918.5283683803799        947.47628009688
30.536130536130525        714.3300451043627        826.4482780772843        880.2244552500197        917.3604875195358        946.2362433036651
30.769230769230756        713.6984733406898        825.507846936135         879.148898291093         916.1926066586918        944.9962065104502
31.00233100233099         713.0766013796137        824.5894768057648        878.0997284068654        915.052863345168         943.7848198263441
31.235431235431218        712.4547294185376        823.6711066753944        877.0505585226376        913.9131200316441        942.5734331422378
31.468531468531452        711.8328574574614        822.752736545024         876.0013886384098        912.7733767181203        941.3620464581317
31.701631701631683        711.2220575856098        821.8591728129302        874.9831704513522        911.6690889532193        940.1901208390342
31.934731934731918        710.6112577137582        820.9656090808362        873.9649522642944        910.5648011883181        939.0181952199366
32.16783216783215         710.0004578419065        820.0720453487422        872.9467340772368        909.460513423417         937.8462696008392
32.40093240093238         709.4014722537464        819.2028479719245        871.9584850747136        908.389867753562         936.7104170919654
32.63403263403262         708.8024866655862        818.3336505951066        870.9702360721903        907.3192220837069        935.5745645830915
32.86713286713285         708.203501077426         817.4644532182888        869.9819870696672        906.2485764138519        934.4387120742177
33.10023310023308         707.6141011777311        816.6154269684358        869.0182433714842        905.2055886906087        933.3336742955597
33.333333333333314        707.024701278036         815.7664007185828        868.054499673301         904.1626009673654        932.2286365169015
33.566433566433545        706.435301378341         814.9173744687297        867.090755975118         903.1196132441221        931.1235987382433
33.79953379953378         705.8577601134265        814.0888344936144        866.15098247114          902.1031422753745        930.04795922074
34.03263403263402         705.2802188485118        813.260294518499         865.2112089671617        901.0866713066266        928.9723197032366
34.26573426573425         704.7026775835973        812.4317545433837        864.2714354631835        900.0702003378788        927.8966801857332
34.49883449883448         704.1350659190952        811.618634390095         863.3478031792616        899.0698691302476        926.8371733179051
34.731934731934714        703.5674542545929        810.8055142368063        862.4241708953397        898.0695379226164        925.7776664500769
34.965034965034945        702.9998425900908        809.9923940835175        861.5005386114178        897.0692067149852        924.7181595822487
35.19813519813519         702.44258008961          809.2011400061119        860.6048075927526        896.1017204059568        923.6955960719656
35.43123543123542         701.8853175891293        808.4098859287062        859.7090765740874        895.1342340969283        922.6730325616822
35.66433566433565         701.3280550886485        807.6186318513006        858.8133455554221        894.1667477878998        921.650469051399
35.89743589743589         700.7822486661437        806.8490176161815        857.9434881578798        893.2280539299032        920.658740512449
36.130536130536115        700.2364422436387        806.0794033810623        857.0736307603373        892.2893600719066        919.6670119734987
36.363636363636346        699.6906358211339        805.3097891459432        856.2037733627949        891.3506662139099        918.6752834345485
36.59673659673659         699.1561125668444        804.5601639273304        855.3579608744974        890.4394911842967        917.7139353749534
36.82983682983682         698.6215893125548        803.8105387087174        854.5121483861997        889.5283161546834        916.7525873153581
37.06293706293705         698.0870660582651        803.0609134901044        853.666335897902         888.6171411250701        915.791239255763
37.29603729603729         697.5652451326317        802.3306478848297        852.8424130795989        887.7289162273526        914.8530763751045
37.529137529137515        697.0434242069982        801.6003822795548        852.0184902612957        886.8406913296349        913.9149134944458
37.762237762237746        696.5216032813647        800.87011667428          851.1945674429926        885.9524664319172        912.9767506137873
37.99533799533799         696.0104890391908        800.1573965229281        850.3917716806474        885.0882251085487        912.0649232433724
38.22843822843822         695.4993747970168        799.4446763715762        849.588975918302         884.2239837851803        911.1530958729572
38.46153846153846         694.9882605548429        798.7319562202242        848.7861801559567        883.3597424618118        910.2412685025422
38.694638694638684        694.4894114021976        798.0396429741048        848.0067743798301        882.5214544291791        909.3579117381254
38.927738927738915        693.9905622495521        797.3473297279853        847.2273686037033        881.6831663965463        908.4745549737083
39.160839160839146        693.4917130969068        796.6550164818659        846.4479628275766        880.8448783639136        907.5911982092913
39.393939393939384        693.0020060921123        795.9792958298153        845.688432332689         880.0281756360934        906.7303643081542
39.627039627039615        692.5122990873176        795.3035751777646        844.9289018378013        879.211472908273         905.869530407017
39.86013986013985         692.022592082523         794.627854525714         844.1693713429137        878.3947701804526        905.0086965058799
40.093240093240084        691.5439533856763        793.971994460241         843.4335037750047        877.6038561804428        904.1749676963689
40.326340326340315        691.0653146888295        793.3161343947678        842.6976362070956        876.8129421804329        903.3412388868577
40.55944055944055         690.5866759919828        792.6602743292946        841.9617686391864        876.022028180423         902.5075100773466
40.792540792540784        690.118562760783         792.0228467274745        841.2480025860764        875.2554337845346        901.6996151355074
41.025641025641015        689.650449529583         791.3854191256543        840.5342365329662        874.4888393886459        900.891720193668
41.25874125874124         689.1823362983832        790.7479915238341        839.8204704798562        873.7222449927573        900.0838252518287
41.49184149184147         688.7244265391395        790.1285466423001        839.1291036239058        872.9811340161865        899.3037427936599
41.72494172494171         688.2665167798957        789.5091017607658        838.4377367679555        872.2400230396156        898.523660335491
41.958041958041946        687.808607020652         788.8896568792317        837.7463699120051        871.4989120630447        897.743577877322
42.19114219114218         687.361624054322         788.2880452297516        837.0754620289107        870.779412926612         896.9854645466412
42.42424242424241         686.9146410879919        787.6864335802713        836.4045541458163        870.0599137901793        896.2273512159603
42.65734265734264         686.4676581216619        787.0848219307911        835.7336462627219        869.3404146537465        895.4692378852795
42.89044289044287         686.0298948303097        786.4953455012353        835.0753307099627        868.6338103352874        894.7245159777002
43.12354312354311         685.5921315389572        785.9058690716793        834.4170151572034        867.9272060168282        893.9797940701208
43.35664335664334         685.1543682476049        785.3163926421232        833.7586996044441        867.2206016983691        893.2350721625414
43.58974358974358         684.726792534871         784.7415410724449        833.1176059406392        866.5340404211812        892.5132018574965
43.82284382284381         684.2992168221369        784.1666895027664        832.4765122768341        865.8474791439932        891.7913315524513
44.055944055944046        683.871641109403         783.5918379330881        831.8354186130291        865.1609178668051        891.0694612474061
44.28904428904429         683.4564892397345        783.0356292132094        831.215667579944         864.4968946326508        890.3703062300026
44.522144522144515        683.0413373700659        782.4794204933306        830.5959165468587        863.8328713984963        889.6711512125988
44.755244755244746        682.6261855003974        781.9232117734518        829.9761655137735        863.168848164342         888.9719961951952
44.98834498834499         682.2205033298384        781.3794684428635        829.3690169143018        862.5169551742807        888.284207153626
45.22144522144522         681.8148211592792        780.835725112275         828.7618683148299        861.8650621842193        887.5964181120567
45.45454545454545         681.4091389887201        780.2919817816866        828.1547197153582        861.2131691941578        886.9086290704873
45.68764568764569         681.0137526543243        779.7621814400073        827.5623397126134        860.5767859377129        886.2370536036643
45.920745920745915        680.6183663199283        779.2323810983279        826.9699597098684        859.9404026812678        885.5654781368412
46.153846153846146        680.2229799855324        778.7025807566486        826.3775797071235        859.3040194248227        884.8939026700181
46.386946386946384        679.837927114253         778.1911692744626        825.8082376263477        858.6938944068313        884.2511021481935
46.62004662004661         679.4528742429735        777.6797577922764        825.2388955455718        858.0837693888398        883.6083016263688
46.85314685314684         679.067821371694         777.1683463100903        824.669553464796         857.4736443708483        882.9655011045442
47.08624708624708         678.6922710716831        776.6710928741714        824.1164700321254        856.8809454773327        882.3410616830723