% Model:              Cav_Hex_Unif_flux_v5.1.1 - Lin. Distn.mph
% Version:            COMSOL 5.5.0.359
% Date:               May 12 2022, 13:30
% Table:              Evaluation Group 1 - 
% P_to_m (kJ/kg)         Q_abs (W)                Q_BHS (W)                T_g_in (K)               T_g_out (K)              Q_rad_loss (W)           Q_rad_loss_int (W)       Q_rad_loss_front (W)     Q_abs_out (W)            Q_abs_in (W)             BHS_front (W)            BHS_interior (W)
100                      1.6105667086298132       1.7511560320503086       325.0164894984261        395.70530624127997       3.5344470551025716E-4    3.5344470551025716E-4    0                        2.318494281670505        -0.5668728668685081      1.3157253937883742       0.4354306382619344
200                      1.6632944231185458       1.7511560320503086       329.68602856629866       472.76442424285216       7.209432285652758E-4     7.209432285652758E-4     0                        2.0253219715798854       -0.28203534648323914     1.3157253937883742       0.4354306382619344
300                      1.6977081609869935       1.7511560320503086       335.1833159864367        549.5525433827454        0.0012476294781253057    0.0012476294781253057    0                        1.9265372681597155       -0.18785055861911593     1.3157253937883742       0.4354306382619344
400                      1.7280498130769042       1.7511560320503086       341.31870469002956       625.9029063778273        0.001960664673018208     0.001960664673018208     0                        1.8747936745252691       -0.14084247474469547     1.3157253937883742       0.4354306382619344
500                      1.7560370188923375       1.7511560320503086       347.909183269101         701.6351370298192        0.002891287136501371     0.002891287136501371     0                        1.8409915568017023       -0.11265709192875872     1.3157253937883742       0.4354306382619344
600                      1.782091950763757        1.7511560320503086       354.7758935002725        776.68284270969          0.004076069954234322     0.004076069954234322     0                        1.8158952384489133       -0.09387329591523035     1.3157253937883742       0.4354306382619344
700                      1.8048380056264497       1.7511560320503086       361.90302127120236       850.8135426615811        0.005552682997535989     0.005552682997535989     0                        1.795022020138514        -0.08045890360699398     1.3157253937883742       0.4354306382619344
