% Model:              Cav_Hex_Unif_flux_v5.1.1 - Lin. Distn.mph
% Version:            COMSOL 5.5.0.359
% Date:               Nov 28 2021, 14:21
% Dimension:          1
% Nodes:              385
% Expressions:        3
% Description:        Line graph
% x                       Height                   Height                   Height
0                         317.7993725470673        317.7992473640294        317.7990890906847
0.10386588508925346       316.7963997695225        316.7956488016814        316.7946989258943
0.2077317701785069        315.79342699197775       315.7920502393335        315.7903087611039
0.31159765526776034       314.79045421443294       314.7884516769856        314.7859185963135
0.4154635403570138        313.78748143688813       313.7848531146376        313.7815284315231
0.5193714295111865        313.94713486803875       313.9446037221369        313.94140188680615
0.6232793186653592        314.10678829918936       314.1043543296362        314.10127534208925
0.7271872078195319        314.26644173034          314.26410493713547       314.2611487973723
0.8310950969737045        314.4260951614906        314.42385554463476       314.42102225265535
0.9351408040190087        314.95763258600743       314.95571171257194       314.9532815951129
1.039186511064313         315.4891700105243        315.4875678805091        315.4855409375705
1.143232218109617         316.0207074350411        316.0194240484463        316.01780028002804
1.247277925154921         316.55224485955796       316.5512802163835        316.5500596224856
1.3514755602124457        320.12734546701114       320.12859817612986       320.1301825336154
1.4556731952699702        323.7024460744643        323.70591613587624       323.71030544474525
1.5598708303274946        327.2775466819175        327.2832340956227        327.2904283558751
1.664068465385019         330.8526472893707        330.86055205536906       330.87055126700494
1.7683694665911514        336.60932457761817       336.62083761927886       336.6354032582312
1.8726704677972839        342.36600186586566       342.3811231831886        342.4002552494574
1.9769714690034161        348.1226791541132        348.14140874709835       348.16510724068365
2.081272470209549         353.8793564423607        353.90169431100816       353.9299592319099
2.1855734714156814        358.2240028025477        358.24903063533066       358.2806952411744
2.289874472621814         362.5686491627347        362.5963669596532        362.6314312504388
2.3941754738279464        366.9132955229217        366.94370328397576       366.98216725970326
2.498476475034079         371.25794188310874       371.2910396082983        371.33290326896775
2.602725227626553         378.7847828155337        378.8226446348354        378.8705423718178
2.706973980219028         386.3116237479586        386.3542496613726        386.4081814746679
2.8112227328115025        393.8384646803836        393.88585468790967       393.945820577518
2.9154714854039767        401.3653056128085        401.4174597144468        401.4834596803681
3.019720237996451         410.43452599271575       410.4924562740304        410.56577606139854
3.1239689905889256        419.5037463726229        419.56745283361397       419.64809244242895
3.2282177431814003        428.57296675253014       428.6424493931976        428.7304088234593
3.3324664957738745        437.64218713243736       437.7174459527812        437.8127252044897
3.4366613306643923        443.1964494283129        443.27526641229775       443.3750589795509
3.5408561655549096        448.75071172418853       448.8330868718143        448.9373927546121
3.645051000445426         454.30497402006415       454.3909073313308        454.4997265296733
3.7492458353359437        459.8592363159397        459.9487277908474        460.0620603047345
3.8536703957121357        465.43969970895375       465.5327401497513        465.6505721012716
3.958094956088329         471.0201631019678        471.1167525086553        471.23908389780877
4.062519516464521         476.60062649498184       476.7007648675592        476.827595694346
4.166944076840713         482.1810898879959        482.2847772264631        482.4161074908831
4.271368637216906         487.55409327730825       487.66123035818316       487.7969288692443
4.375793197593097         492.9270966666206        493.0376834899032        493.17775024760556
4.480217757969291         498.30010005593294       498.4141366216233        498.5585716259668
4.584642318345483         503.6731034452453        503.79058975334334       503.939393004328
4.6890513174561965        511.22965391293474       511.3523274529615        511.50766835214336
4.793460316566911         518.7862043806242        518.9140651525797        519.0759436999587
4.8978693156776245        526.3427548483136        526.4758028521978        526.6442190477741
5.002278314788338         533.899305316003         534.037540551816         534.2124943955894
5.106614519651187         537.8431210784252        537.9840756795559        538.1624307411362
5.210950724514035         541.7869368408471        541.9306108072958        542.112367086683
5.315286929376883         545.7307526032691        545.8771459350356        546.0623034322298
5.419623134239733         549.6745683656911        549.8236810627754        550.0122397777766
5.52395933910258          553.4351699909489        553.5870580625923        553.7791804390375
5.628295543965429         557.1957716162067        557.3504350624091        557.5461211002985
5.732631748828277         560.9563732414645        561.113812062226         561.3130617615595
5.836967953691126         564.7169748667222        564.8771890620428        565.0800024228205
5.941221742296627         568.9375100463155        569.1007966715799        569.307631496373
6.045475530902129         573.158045225909         573.324404281117         573.5352605699254
6.14972931950763          577.3785804055024        577.548011890654         577.7628896434779
6.2539831081131325        581.5991155850957        581.7716195001912        581.9905187170305
6.358195592712486         587.2335462909264        587.4109209210051        587.6361939044549
6.4624080773118395        592.8679769967572        593.0502223418189        593.2818690918793
6.5666205619111935        598.502407702588         598.6895237626328        598.9275442793039
6.6708330465105465        604.1368384084187        604.3288251834467        604.5732194667283
6.775058715967599         608.892869608206         609.0890356185005        609.3393196191187
6.87928438542465          613.6489008079931        613.8492460535541        614.105419771509
6.983510054881702         618.4049320077802        618.6094564886077        618.8715199238993
7.087735724338754         623.1609632075674        623.3696669236615        623.6376200762896
7.1920026821116           625.6479861432227        625.8589971966711        626.1302850237084
7.296269639884445         628.135009078878         628.3483274696807        628.6229499711272
7.400536597657291         630.6220320145334        630.8376577426903        631.115614918546
7.504803555430137         633.1090549501887        633.3269880157           633.6082798659648
7.609070513202983         637.1721671868769        637.3943595719193        637.6801802579942
7.713337470975828         641.2352794235651        641.4617311281386        641.7520806500235
7.817604428748674         645.2983916602533        645.529102684358         645.8239810420528
7.92187138652152          649.3615038969415        649.5964742405773        649.8958814340821
8.026127683714085         652.3938051380985        652.632118985586         652.9347532442059
8.130383980906648         655.4261063792555        655.6677637305945        655.9736250543297
8.234640278099212         658.4584076204125        658.703408475603         659.0124968644535
8.338896575291777         661.4907088615695        661.7390532206116        662.0513686745774
8.44295245695011          665.0810634053227        665.333395973287         665.6491292670227
8.547008338608444         668.6714179490758        668.9277387259625        669.246889859468
8.65106422026678          672.261772492829         672.522081478638         672.8446504519134
8.755120101925115         675.8521270365821        676.1164242313134        676.4424110443587
8.85916646052581          677.8759238277939        678.1423701578645        678.4699590656937
8.963212819126504         679.8997206190058        680.1683160844157        680.4975070870289
9.067259177727198         681.9235174102176        682.1942620109668        682.5250551083641
9.17130553632789          683.9473142014294        684.2202079375179        684.5526031296993
9.275351894928587         685.9000215116619        686.1747748244968        686.5083478130346
9.379398253529281         687.8527288218942        688.1293417114757        688.4640924963701
9.483444612129976         689.8054361321265        690.0839085984545        690.4198371797054
9.58749097073067          691.7581434423589        692.0384754854334        692.3755818630408
9.69153791345871          693.3198394399409        693.6019158815197        693.9402352414583
9.79558485618675          694.8815354375231        695.165356277606         695.5048886198756
9.899631798914788         696.4432314351051        696.7287966736923        697.0695419982931
10.003678741642828        698.0049274326872        698.2922370697786        698.6341953767104
10.107902530785227        701.4158933889106        701.7061203844521        702.0496603874533
10.212126319927625        704.826859345134         705.1200036991258        705.465125398196
10.316350109070024        708.2378253013575        708.5338870137995        708.8805904089389
10.420573898212423        711.6487912575809        711.9477703284731        712.2960554196818
10.52481989863272         714.4900572514116        714.7912563349429        715.1406531613192
10.629065899053016        717.3313232452424        717.6347423414127        717.9852509029563
10.733311899473314        720.1725892390731        720.4782283478824        720.8298486445937
10.83755789989361         723.0138552329038        723.3217143543521        723.6744463862309
10.942112959288735        724.5073625438897        724.8164448589232        725.1697717916397
11.046668018683862        726.0008698548754        726.3111753634942        726.6650971970487
11.151223078078988        727.4943771658614        727.8059058680652        728.1604226024576
11.255778137474113        728.9878844768472        729.3006363726363        729.6557480078665
11.36033319686924         731.4458682082073        731.7599680631566        732.1156718661152
11.464888256264365        733.9038519395676        734.219299753677         734.5755957243639
11.569443315659491        736.3618356709278        736.6786314441972        737.0355195826127
11.673998375054618        738.819819402288         739.1379631347176        739.4954434408614
11.778667654282287        740.5645025094897        740.8834343659289        741.2412377915952
11.883336933509959        742.3091856166914        742.6289055971404        742.9870321423289
11.988006212737632        744.0538687238931        744.3743768283517        744.7328264930627
12.092675491965302        745.7985518310948        746.1198480595631        746.4786208437964
12.196919956581453        748.6107636817293        748.9330883614574        749.2922865944469
12.301164421197601        751.4229755323638        751.7463286633517        752.1059523450972
12.405408885813749        754.2351873829983        754.559568965246         754.9196180957476
12.509653350429899        757.0473992336329        757.3728092671403        757.7332838463981
12.613897815046046        758.2666179411324        758.592344040461         758.952924055373
12.718142279662194        759.4858366486319        759.8118788137817        760.172564264348
12.822386744278342        760.7050553561313        761.0314135871024        761.3922044733231
12.926631208894491        761.9242740636308        762.2509483604232        762.611844682298
13.030657125878067        762.8661289515112        763.193079507822         763.5540706393588
13.13468304286164         763.8079838393915        764.1352106552206        764.4962965964194
13.238708959845216        764.7498387272718        765.0773418026192        765.43852255348
13.342734876828791        765.6916936151522        766.0194729500179        766.3807485105407
13.446760793812365        766.6512132487053        766.979218994777         767.3405630730962
13.550786710795938        767.6107328822582        767.9389650395362        768.3003776356517
13.654812627779513        768.5702525158113        768.8987110842955        769.2601921982072
13.758838544763087        769.5297721493642        769.8584571290547        770.2200067607627
13.862894447144287        771.1492817702015        771.4780848170919        771.8396384335022
13.96695034952549         772.7687913910386        773.0977125051293        773.4592701062417
14.07100625190669         774.3883010118758        774.7173401931665        775.0789017789812
14.175062154287891        776.007810632713         776.3369678812037        776.6985334517207
14.279267162386367        777.6296338052493        777.9588375763827        778.3203891038739
14.383472170484843        779.2514569777857        779.5807072715618        779.9422447560272
14.487677178583315        780.873280150322         781.2025769667409        781.5641004081805
14.591882186681792        782.4951033228583        782.82444666192          783.1859560603338
14.696113909062936        783.4457650153454        783.7750755727147        784.1365656434223
14.800345631444081        784.3964267078323        784.7257044835094        785.0871752265109
14.904577353825225        785.3470884003193        785.676333394304         786.0377848095995
15.008809076206369        786.2977500928064        786.6269623050988        786.9883943926881
15.113010184628527        787.753908181478         788.0828023979926        788.4441514978231
15.217211293050688        789.2100662701496        789.5386424908866        789.899908602958
15.321412401472852        790.6662243588212        790.9944825837804        791.355665708093
15.42561350989501         792.1223824474928        792.4503226766743        792.811422813228
15.529759252738828        793.1217774129675        793.4494476467123        793.8104845682296
15.633904995582645        794.1211723784422        794.4485726167502        794.8095463232312
15.738050738426463        795.1205673439171        795.4476975867882        795.8086080782329
15.84219648127028         796.1199623093918        796.4468225568262        796.8076698332345
15.946342224114098        797.1655015016489        797.4920817453888        797.8528547219976
16.050487966957917        798.211040693906         798.5373409339512        798.8980396107604
16.154633709801733        799.2565798861632        799.5826001225137        799.9432244995234
16.258779452645552        800.3021190784203        800.6278593110762        800.9884093882863
16.362926740340065        801.1319352554764        801.4574122269762        801.8178927188073
16.467074028034574        801.9617514325323        802.2869651428763        802.6473760493286
16.571221315729083        802.7915676095884        803.1165180587764        803.4768593798497
16.675368603423596        803.6213837866443        803.9460709746763        804.3063427103708
16.7795166347497          804.4341027001195        804.7585223217552        805.1187264532606
16.88366466607581         805.2468216135948        805.570973668834         805.9311101961503
16.987812697401914        806.05954052707          806.3834250159127        806.74349393904
17.091960728728022        806.8722594405452        807.1958763629916        807.5558776819298
17.196122028183318        807.6800880543747        808.0034304292258        808.363365597162
17.30028332763861         808.4879166682041        808.8109844954599        809.1708535123942
17.404444627093905        809.2957452820335        809.6185385616942        809.9783414276264
17.5086059265492          810.103573895863         810.4260926279284        810.7858293428586
17.61277010401332         810.8640284386881        811.1862845936594        811.5459571097945
17.716934281477442        811.6244829815132        811.9464765593904        812.3060848767303
17.821098458941563        812.3849375243384        812.7066685251214        813.0662126436662
17.925262636405684        813.1453920671636        813.4668604908524        813.826340410602
18.029374707129623        813.9795668237168        814.3007574346876        814.6601765391642
18.133486777853562        814.8137415802701        815.134654378523         815.4940126677266
18.237598848577502        815.6479163368234        815.9685513223583        816.3278487962888
18.34171091930144         816.4820910933767        816.8024482661937        817.161684924851
18.44582299002538         816.9291379847923        817.2493102000927        817.6085024095046
18.549935060749327        817.3761848762081        817.6961721339917        818.0553198941582
18.654047131473266        817.8232317676238        818.1430340678908        818.5021373788119
18.758159202197206        818.2702786590396        818.5898960017897        818.9489548634655
18.862187075728457        818.8383234075653        819.1576931174329        819.5166819783585
18.966214949259708        819.4063681560912        819.7254902330761        820.0844090932517
19.070242822790963        819.9744129046169        820.2932873487193        820.6521362081447
19.17427069632221         820.5424576531427        820.8610844643625        821.2198633230378
19.27829856985346         821.1437590400669        821.4621388282527        821.8208551016418
19.382326443384713        821.7450604269911        822.063193192143         822.4218468802458
19.486354316915964        822.3463618139152        822.6642475560332        823.0228386588498
19.59038219044721         822.9476632008394        823.2653019199233        823.6238304374538
19.694384809223052        823.4043763442584        823.7218796740515        824.08037491166
19.79838742799889         823.8610894876773        824.1784574281796        824.5369193858662
19.90239004677473         824.3178026310962        824.6350351823078        824.9934638600726
20.006392665550568        824.7745157745152        825.0916129364359        825.4500083342788
20.110368280451215        825.2979366399874        825.6148402380792        825.9731900547739
20.21434389535186         825.8213575054597        826.1380675397224        826.4963717752689
20.318319510252508        826.3447783709319        826.6612948413656        827.0195534957641
20.422295125153155        826.868199236404         827.1845221430088        827.5427352162592
20.526270915248723        827.6047647253052        827.9207476224302        828.278887061361
20.630246705344288        828.3413302142064        828.6569731018516        829.0150389064629
20.734222495439855        829.0778957031075        829.3931985812729        829.7511907515649
20.838198285535423        829.8144611920087        830.1294240606943        830.4873425966667
20.942186841251868        830.2084847623416        830.5232496019198        830.8811256048439
21.046175396968312        830.6025083326745        830.9170751431452        831.274908613021
21.150163952684757        830.9965319030074        831.3109006843707        831.6686916211981
21.254152508401205        831.3905554733403        831.7047262255962        832.0624746293753
21.3581883791533          831.7849446021339        832.0988857183441        832.4565891842107
21.462224249905397        832.1793337309275        832.4930452110923        832.850703739046
21.566260120657493        832.5737228597211        832.8872047038402        833.2448182938814
21.670295991409585        832.9681119885147        833.2813641965882        833.6389328487168
21.77433186216168         833.3279007518543        833.640962204347         833.9984951699896
21.878367732913773        833.6876895151936        834.0005602121057        834.3580574912623
21.982403603665873        834.0474782785332        834.3601582198645        834.7176198125352
22.086439474417965        834.4072670418726        834.7197562276233        835.077182133808
22.190497128963955        834.9097432917465        835.2219282286176        835.5793026063874
22.29455478350994         835.4122195416205        835.724100229612         836.0814230789667
22.39861243805593         835.9146957914945        836.2262722306064        836.583543551546
22.502670092601917        836.4171720413684        836.7284442316006        837.0856640241253
22.60674046169085         836.9243803812094        837.2353373765689        837.592504246996
22.710810830779785        837.4315887210503        837.7422305215371        838.0993444698668
22.814881199868715        837.9387970608911        838.2491236665052        838.6061846927375
22.91895156895765         838.4460054007321        838.7560168114734        839.1130249156082
23.023021736025406        838.7182574607732        839.0280908318812        839.385066532253
23.127091903093167        838.9905095208142        839.3001648522888        839.6571081488977
23.231162070160924        839.2627615808552        839.5722388726965        839.9291497655424
23.335232237228684        839.5350136408963        839.8443128931042        840.2011913821872
23.439242926004244        839.9405239519357        840.2495363912858        840.6063617996033
23.543253614779807        840.3460342629751        840.6547598894673        841.0115322170193
23.64726430355537         840.7515445740144        841.0599833876488        841.4167026344354
23.751274992330927        841.1570548850538        841.4652068858304        841.8218730518515
23.855285681106487        841.4648076108184        841.7727421755462        842.1293691733384
23.95929636988205         841.772560336583         842.0802774652622        842.4368652948253
24.063307058657614        842.0803130623476        842.3878127549781        842.7443614163122
24.16731774743317         842.3880657881123        842.6953480446939        843.0518575377992
24.27136968819238         842.7168931232063        843.0239454366184        843.3804141337373
24.375421628951578        843.0457204583004        843.3525428285428        843.7089707296756
24.479473569710787        843.3745477933944        843.6811402204673        844.0375273256138
24.58352551046999         843.7033751284885        844.0097376123917        844.366083921552
24.687577451229195        843.9318860293833        844.2380792842314        844.5943928275436
24.791629391988398        844.1603969302782        844.466420956071         844.8227017335353
24.895681332747603        844.3889078311731        844.6947626279107        845.0510106395268
24.999733273506806        844.617418732068         844.9231042997503        845.2793195455184
25.103874870384224        844.7639809413743        845.0695628140601        845.4257593209597
25.208016467261647        844.9105431506805        845.2160213283698        845.5721990964009
25.312158064139066        845.0571053599867        845.3624798426795        845.7186388718421
25.416299661016485        845.203667569293         845.5089383569892        845.8650786472833
25.520441257893903        845.3698672906089        845.6750259515004        846.0311476344286
25.62458285477132         845.5360670119248        845.8411135460117        846.197216621574
25.728724451648738        845.7022667332408        846.007201140523         846.3632856087193
25.832866048526157        845.8684664545567        846.1732887350341        846.5293545958646
25.937103314705798        846.1706134099396        846.4752247988138        846.8312528451329
26.041340580885446        846.4727603653225        846.7771608625934        847.1331510944015
26.14557784706509         846.7749073207056        847.079096926373         847.4350493436699
26.249815113244736        847.0770542760885        847.3810329901527        847.7369475929383
26.354050048236335        847.353779826891         847.6575575340428        848.0134334418901
26.458284983227927        847.6305053776936        847.934082077933         848.2899192908418
26.56251991821953         847.9072309284961        848.2106066218231        848.5664051397935
26.666754853211124        848.1839564792987        848.4871311657132        848.8428909887452
26.77093129846448         848.3567599769527        848.6598065815662        849.015541042752
26.87510774371784         848.5295634746067        848.8324819974192        849.1881910967588
26.979284188971196        848.7023669722607        849.0051574132722        849.3608411507655
27.08346063422455         848.8751704699147        849.1778328291252        849.5334912047723
27.18759425947588         849.0854916471926        849.387993201702         849.7436179524558
27.291727884727212        849.2958128244704        849.5981535742787        849.9537447001394
27.39586150997854         849.5061340017484        849.8083139468555        850.1638714478229
27.499995135229874        849.7164551790263        850.0184743194322        850.3739981955065
27.604128760481206        849.8718672279557        850.1737620397782        850.5292582680072
27.708262385732546        850.0272792768852        850.3290497601241        850.684518340508
27.812396010983882        850.1826913258146        850.48433748047          850.8397784130087
27.916529636235218        850.3381033747442        850.639625200816         850.9950384855094
28.02062990972728         850.4833429205012        850.7847574691301        851.1401490706957
28.12473018321934         850.6285824662581        850.9298897374443        851.2852596558816
28.228830456711407        850.773822012015         851.0750220057585        851.4303702410679
28.332930730203472        850.919061557772         851.2201542740727        851.575480826254
28.43709219093969         851.0677055507996        851.3686864583347        851.7239896713384
28.541253651675913        851.2163495438272        851.5172186425966        851.8724985164228
28.64541511241213         851.3649935368546        851.6657508268586        852.0210073615071
28.749576573148353        851.5136375298822        851.8142830111206        852.1695162065915
28.853738033884575        851.6672744558274        851.9678032187537        852.323011567437
28.9578994946208          851.8209113817726        852.1213234263869        852.4765069282826
29.062060955357023        851.9745483077178        852.2748436340199        852.630002289128
29.166222416093248        852.128185233663         852.4283638416531        852.7834976499736
29.27042006036438         852.2540500534412        852.5541337709832        852.9092474343042
29.374617704635508        852.3799148732195        852.6799037003133        853.034997218635
29.478815348906643        852.5057796929977        852.8056736296434        853.1607470029656
29.58301299317777         852.631644512776         852.9314435589735        853.2864967872963
29.687194321560106        852.7350497447715        853.034773335493         853.3898110409862
29.79137564994244         852.8384549767668        853.1381031120126        853.4931252946762
29.895556978324777        852.9418602087621        853.2414328885321        853.5964395483662
29.99973830670711         853.0452654407576        853.3447626650517        853.6997538020562
30.10381210375387         853.1592617157147        853.458683609336         853.8136612592315
30.207885900800633        853.2732579906718        853.5726045536203        853.9275687164065
30.311959697847392        853.3872542656289        853.6865254979047        854.0414761735818
30.41603349489415         853.501250540586         853.800446442189         854.155383630757
30.520094064320283        853.6391163214064        853.9382165148938        854.2931348102559
30.624154633746418        853.7769821022268        854.0759865875987        854.4308859897549
30.72821520317255         853.9148478830473        854.2137566603035        854.5686371692539
30.832275772598678        854.0527136638677        854.3515267330083        854.7063883487527
30.936325915464163        854.207514898215         854.5062218803996        854.8610628720136
31.04037605832965         854.362316132562         854.6609170277909        855.0157373952743
31.144426201195134        854.5171173669092        854.8156121751823        855.1704119185351
31.248476344060613        854.6719186012564        854.9703073225736        855.3250864417959
31.352526486926102        854.7477648949362        855.0460954961558        855.4008616946531
31.456576629791588        854.823611188616         855.121883669738         855.4766369475105
31.560626772657077        854.8994574822959        855.1976718433202        855.5524122003678
31.664676915522563        854.9753037759758        855.2734600169024        855.6281874532251
31.768794458543763        855.1059850719089        855.4040389343911        855.7587424703848
31.87291200156496         855.236666367842         855.5346178518798        855.8892974875446
31.97702954458616         855.3673476637749        855.6651967693684        856.0198525047042
32.08114708760735         855.498028959708         855.7957756868572        856.1504075218639
32.185264630628545        855.5877486338696        855.885430254172         856.2400480348767
32.28938217364974         855.6774683080312        855.9750848214867        856.3296885478896
32.39349971667094         855.7671879821928        856.0647393888015        856.4193290609024
32.497617259692134        855.8569076563543        856.1543939561163        856.5089695739152
32.60180102145093         855.9663878523401        856.2637860371066        856.6183404284935
32.70598478320973         856.0758680483258        856.3731781180968        856.7277112830718