% Model:              Cav_Hex_Unif_flux_v5.1.1 - Lin. Distn.mph
% Version:            COMSOL 5.5.0.359
% Date:               Nov 28 2021, 14:22
% Dimension:          1
% Nodes:              490
% Expressions:        3
% Description:        Line graph
% x                       Height                   Height                   Height
0                         315.55942678743133       315.5594893242377        315.5594111327866
0.16246887210360422       313.5619075044806        313.56202121639546       313.5618789776947
0.32493774420720845       311.56438822152984       311.56455310855324       311.5643468226027
0.4874066163108127        309.5668689385791        309.567085000711         309.56681466751076
0.6498754884144169        313.4613252786975        313.46144114711313       313.4612957927684
0.8123443605180211        317.3557816188158        317.3557972935152        317.355776918026
0.9748132326216252        321.2502379589342        321.2501534399173        321.2502580432836
1.1377131042067612        327.6961600168929        327.6959100172746        327.69622138576767
1.3006129757918965        334.1420820748516        334.14166659463194       334.14218472825166
1.4635128473770322        340.58800413281034       340.58742317198926       340.58814807073566
1.6264699225526433        344.30885219555955       344.3081768319221        344.3090194312086
1.7894269977282542        348.0297002583087        348.02893049185485       348.0298907916815
1.952384072903865         351.75054832105786       351.7496841517876        351.75076215215444
2.1156873216810643        364.86903894497726       364.8678349500366        364.8693370228368
2.278990570458263         377.9875295688966        377.98598574828554       377.98791189351914
2.442293819235462         391.10602019281595       391.1041365465345        391.10648676420146
2.6056043954401167        399.98028399831946       399.9781714076744        399.9808071500499
2.7689149716447705        408.85454780382287       408.8522062688142        408.85512753589825
2.9322255478494257        417.7288116093263        417.726241129954         417.7294479217466
3.095535181730837         427.2430864209547        427.24026777951656       427.24378467892353
3.2588448156122483        436.757361232583         436.75429442907904       436.7581214361004
3.42215444949366          446.2716360442113        446.2683210786415        446.27245819327726
3.585464083375072         457.67106508718194       457.6674496489455        457.67196116765354
3.748773717256484         469.0704941301525        469.0665782192493        469.07146414202975
3.912083351137896         480.4699231731231        480.46570678955317       480.470967116406
4.075485184610999         487.48164569285905       487.47724281555855       487.4827365619055
4.238887018084101         494.4933682125949        494.4887788415639        494.4945060074049
4.402288851557204         501.50509073233076       501.5003148675693        501.50627545290433
4.565690685030306         512.3109727214834        512.305905862043         512.312231664899
4.729092518503409         523.1168547106358        523.1114968565167        523.1181878768934
4.892494351976511         533.9227366997884        533.9170878509905        533.9241440888879
5.055791682177762         540.1743023522614        540.1684834157506        540.17575122417
5.219089012379015         546.4258680047343        546.4198789805109        546.4273583594521
5.382386342580267         552.6774336572072        552.6712745452711        552.6789654947341
5.545567089101965         558.9529896588615        558.9466560739919        558.9545643134762
5.7087478356236625        565.2285456605159        565.2220376027126        565.2301631322183
5.87192858214536          571.5041016621702        571.4974191314334        571.5057619509604
6.035109328667058         578.2075287137158        578.2006589215046        578.2092391610541
6.198290075188755         584.9109557652613        584.9038987115758        584.9127163711479
6.361470821710453         591.6143828168068        591.607138501647         591.6161935812416
6.524583053598745         599.0508802185982        599.0434272344554        599.0527598351589
6.6876952854870355        606.4873776203895        606.4797159672638        606.489326089076
6.850807517375327         613.9238750221807        613.9160047000722        613.9258923429933
7.013919749263619         618.8183560672919        618.8103462557561        618.82041289573
7.1770319811519085        623.712837112403         623.70468781144          623.7149334484666
7.340144213040199         628.6073181575142        628.5990293671239        628.6094540012033
7.503273386082296         635.9701515222836        635.9616593080597        635.9723790816013
7.66640255912439          643.3329848870528        643.3242892489956        643.3353041619991
7.829531732166486         650.6958182518222        650.6869191899314        650.6982292423971
7.992936509963241         656.1120857785407        656.1030379637357        656.1145761095331
8.156341287759993         661.5283533052592        661.5191567375399        661.5309229766691
8.319746065556746         666.9446208319778        666.9352755113441        666.9472698438051
8.483235674997182         670.9743324005433        670.9648774093605        670.9770506114554
8.646725284437615         675.0040439691087        674.9944793073768        675.0068313791056
8.810214893878047         679.0337555376741        679.0240812053931        679.0366121467559
8.973704503318482         682.8851108564264        682.8753322974916        682.8880454122672
9.137194112758912         686.7364661751786        686.7265833895899        686.7394786777783
9.300683722199347         690.5878214939308        690.5778344816882        690.5909119432894
9.464258163283459         693.6662383681318        693.6561641516543        693.6693856248089
9.62783260436757          696.7446552423326        696.7344938216202        696.7478593063283
9.791407045451685         699.8230721165335        699.8128234915862        699.8263329878479
9.954892209215073         702.9830540961577        702.9726995753773        702.9863503290885
10.11837737297846         706.1430360757819        706.1325756591683        706.1463676703289
10.281862536741848        709.3030180554061        709.2924517429593        709.3063850115694
10.445347700505236        713.2074033224028        713.1967676873651        713.2109570676038
10.608832864268624        717.1117885893993        717.1010836317708        717.115529123638
10.772318028032013        721.0161738563959        721.0053995761766        721.0201011796722
10.935720905182528        725.4724905881583        725.4617440602744        725.4768531532237
11.099123782333043        729.9288073199206        729.9180885443723        729.9336051267751
11.262526659483559        734.3851240516829        734.3744330284701        734.3903571003266
11.426019665146791        737.5484892053059        737.5378832204384        737.5542418708906
11.589512670810022        740.7118543589289        740.7013334124066        740.7181266414544
11.753005676473256        743.875219512552         743.8647836043748        743.8820114120184
11.916498682136488        746.7560596495676        746.745781288508         746.7633700085655
12.07999168779972         749.6368997865832        749.6267789726411        749.6447286051125
12.243484693462953        752.5177399235987        752.5077766567742        752.5260872016595
12.407131298492377        755.2084867716723        755.1987294077541        755.2173355957693
12.570777903521797        757.8992336197457        757.8896821587338        757.908583989879
12.734424508551221        760.5899804678193        760.5806349097136        760.5998323839888
12.898071113580645        762.9832406393475        762.9741438556186        762.9934153147511
13.061717718610067        765.3765008108755        765.3676528015236        765.3869982455134
13.225364323639491        767.7697609824037        767.7611617474287        767.7805811762757
13.389122029000406        770.1485613553217        770.1403348640368        770.1597501496675
13.55287973436132         772.5273617282395        772.519507980645         772.5389191230591
13.71663743972223         774.9061621011574        774.8986810972532        774.9180880964508
13.880252313954992        776.6737191081827        776.6665268200919        776.6859558281624
14.043867188187752        778.4412761152079        778.4343725429305        778.4538235598737
14.20748206242051         780.208833122233         780.2022182657691        780.2216912915851
14.37102086095993         782.2041205962354        782.1978620399655        782.2172183159967
14.53455965949935         784.1994080702375        784.1935058141617        784.2127453404081
14.698098458038768        786.1946955442397        786.189149588358         786.2082723648197
14.861637256578188        788.1518651928658        788.1466943803407        788.165664968766
15.025176055117607        790.1090348414917        790.1042391723232        790.1230575727122
15.188714853657025        792.0662044901177        792.0617839643058        792.0804501766586
15.352210659723653        794.0271667229077        794.0231383039285        794.0415118835466
15.515706465790279        795.9881289556977        795.984492643551         796.0025735904345
15.679202271856905        797.9490911884877        797.9458469831735        797.9636352973224
15.842698077923531        799.8138330304753        799.8109596997033        799.828428577199
16.006193883990157        801.6785748724626        801.676072416233         801.6932218570755
16.169689690056785        803.5433167144499        803.5411851327626        803.558015136952
16.333219195024633        805.3799436589404        805.3781762848482        805.3946501937012
16.496748699992477        807.2165706034308        807.2151674369336        807.2312852504502
16.66027820496032         809.0531975479213        809.0521585890191        809.0679203071994
16.823869901664498        810.2920468752244        810.2912620206805        810.3067620829326
16.987461598368668        811.5308962025274        811.5303654523418        811.5456038586657
17.151053295072845        812.7697455298305        812.7694688840032        812.7844456343988
17.314702661458874        813.9462426106141        813.9461603467091        813.9608445587966
17.478352027844906        815.1227396913976        815.1228518094149        815.1372434831942
17.642001394230938        816.2992367721811        816.2995432721208        816.3136424075918
17.805705477762846        817.3394375589165        817.3399158750784        817.3537537473795
17.96940956129475         818.3796383456518        818.3802884780358        818.3938650871671
18.133113644826654        819.4198391323871        819.4206610809932        819.4339764269547
18.296817728358562        820.2795090932123        820.2804877276593        820.2935920448156
18.460521811890466        821.1391790540372        821.1403143743253        821.1532076626763
18.62422589542237         821.9988490148621        822.0001410209912        822.0128232805371
18.787780869369204        823.1080899839567        823.1095725826233        823.1219652890402
18.951335843316045        824.2173309530511        824.2190041442552        824.2311072975433
19.114890817262882        825.3265719221457        825.3284357058872        825.3402493060464
19.278445791209716        826.4763131431722        826.478346251303         826.4898636236558
19.44200076515655         827.6260543641987        827.6282567967188        827.6394779412651
19.605555739103384        828.7757955852252        828.7781673421346        828.7890922588745
19.769061613786473        829.8094480219195        829.8119601615629        829.8226100418514
19.932567488469566        830.8431004586137        830.845752980991         830.8561278248281
20.096073363152655        831.8767528953078        831.8795458004194        831.8896456078049
20.25957795633561         832.5134035590817        832.5163274408694        832.5262540899682
20.42308254951857         833.1500542228553        833.1531090813195        833.1628625721313
20.586587142701525        833.786704886629         833.7898907217696        833.7994710542945
20.75017489509651         834.8284981929604        834.8317492564196        834.8410425789261
20.913762647491495        835.8702914992917        835.8736077910695        835.8826141035577
21.077350399886484        836.9120848056231        836.9154663257194        836.9241856281893
21.240938152281473        837.5570451927669        837.5604640432613        837.5690071828407
21.404525904676458        838.2020055799104        838.2054617608029        838.2138287374919
21.56811365707145         838.846965967054         838.8504594783446        838.8586502921432
21.731774243204285        839.5515864982527        839.5550604893248        839.5630573332381
21.895434829337116        840.2562070294514        840.2596615003047        840.2674643743328
22.059095415469947        840.96082756065          840.9642625112847        840.9718714154275
22.222776241470026        841.5624762864646        841.5658870606231        841.5733298891669
22.3864570674701          842.164125012279         842.1675116099615        842.1747883629062
22.55013789347018         842.7657737380935        842.7691361592998        842.7762468366456
22.713886224872674        843.3002349991835        843.3035808951857        843.3105467686247
22.87763455627517         843.8346962602735        843.8380256310714        843.8448467006037
23.041382887677667        844.3691575213635        844.3724703669573        844.3791466325828
23.205168305359834        845.0450562365029        845.0483274408115        845.0548209095543
23.368953723041997        845.7209549516422        845.7241845146655        845.7304951865258
23.532739140724157        846.3968536667815        846.4000415885195        846.4061694634972
23.696590146887583        846.8390835161223        846.8422394558455        846.8482472630812
23.860441153051           847.281313365463         847.2844373231715        847.290325062665
24.024292159214415        847.7235432148038        847.7266351904974        847.7324028622489
24.18814316537783         848.1723104354542        848.1753658466178        848.1810104002053
24.351994171541246        848.6210776561045        848.6240965027379        848.6296179381615
24.515845177704662        849.0698448767548        849.072827158858         849.0782254761176
24.679762107512943        849.5718989274044        849.5748427062715        849.5801046355748
24.84367903732123         850.0739529780539        850.0768582536849        850.0819837950319
25.00759596712951         850.5760070287033        850.5788738010984        850.583862954489
25.17158168938987         851.097243137938         851.1000631862096        851.1049092392689
25.335567411650228        851.6184792471726        851.6212525713206        851.6259555240485
25.499553133910585        852.1397153564072        852.1424419564318        852.1470018088283
25.66360678759598         852.3940745508162        852.3967806962027        852.4012696815685
25.82766044128137         852.6484337452251        852.6511194359733        852.6555375543084
25.991714094966767        852.9027929396341        852.905458175744         852.9098054270482
26.155767748652163        853.4180003402888        853.4206151921943        853.4248207203943
26.31982140233756         853.9332077409435        853.9357722086444        853.9398360137403
26.483875056022953        854.4484151415983        854.4509292250946        854.4548513070864
26.64798682838731         854.8025781588875        854.8050549405197        854.8088781550499
26.81209860075166         855.1567411761768        855.1591806559446        855.1629050030133
26.97621037311601         855.510904193466         855.5133063713696        855.5169318509768
27.14032269763412         855.7908776181657        855.7932436681494        855.7967890622208
27.30443502215222         856.0708510428653        856.0731809649292        856.0766462734646
27.468547346670324        856.3508244675651        856.3531182617089        856.3565034847085
27.63250892149331         856.6269660500719        856.6292248653668        856.6325315699822
27.796470496316296        856.9031076325787        856.9053314690246        856.9085596552558
27.960432071139284        857.1792492150854        857.1814380726826        857.1845877405294
28.124384703746518        857.4221771811104        857.4243410781908        857.4274242493683
28.288337336353756        857.6651051471354        857.6672440836987        857.670260758207
28.45228996896099         857.9080331131603        857.9101470892067        857.9130972670456
28.616064554944945        858.1371454493683        858.1392342815207        858.1421212182753
28.779839140928896        858.3662577855762        858.3683214738344        858.3711451695049
28.94361372691285         858.5953701217842        858.5974086661482        858.6001691207346
29.107388312896802        858.82440872547          858.8264231716787        858.8291213007349
29.27116289888075         859.0534473291557        859.055437677209         859.0580734807351
29.434937484864697        859.2824859328414        859.2844521827395        859.2870256607354
29.59872627393485         859.5407491452066        859.542683786916         859.5451851164897
29.762515063004997        859.7990123575718        859.8009153910923        859.803344572244
29.926303852075144        860.0572755699369        860.0591469952687        860.0615040279982
30.090062119805363        860.2504507163031        860.2522974322313        860.2546000789455
30.25382038753558         860.4436258626693        860.4454478691938        860.4476961298926
30.417578655265793        860.6368010090354        860.6385983061563        860.6407921808399
30.58130672896748         860.8809100809395        860.8826734360835        860.8847976559474
30.745034802669164        861.1250191528437        861.1267485660105        861.1288031310548
30.908762876370847        861.3691282247479        861.3708236959376        861.3728086061623
31.07260518588685         861.5216318377823        861.5233061364987        861.5252475439103
31.236447495402853        861.6741354508165        861.6757885770597        861.6776864816583
31.40028980491886         861.8266390638508        861.8282710176209        861.8301254194063
31.56413211443486         861.9948565089271        861.9964627061971        861.9982682573072
31.727974423950858        862.1630739540033        862.1646543947733        862.1664110952081
31.89181673346686         862.3312913990794        862.3328460833495        862.334553933109
32.05600240220886         862.4784820929797        862.4800138413074        862.4816788908653
32.22018807095087         862.6256727868798        862.627181599265         862.6288038486215
32.38437373969287         862.7728634807801        862.7743493572226        862.7759288063777
32.54846668645921         862.9150156175839        862.9164842043357        862.9180240952905
32.712559633225545        863.0571677543875        863.0586190514487        863.0601193842032
32.87665257999188         863.1993198911912        863.2007538985617        863.2022146731159
33.040517112464116        863.3267315527762        863.3281502288871        863.3295756220937
33.20438164493634         863.4541432143611        863.4555465592124        863.4569365710712
33.36824617740857         863.581554875946         863.5829428895378        863.5842975200488
33.532110709880804        863.6916109614186        863.6929845628977        863.6943082703641
33.69597524235303         863.8016670468911        863.8030262362574        863.8043190206791
33.859839774825254        863.9117231323636        863.9130679096172        863.9143297709942
34.02331649181413         864.0120227384599        864.0133555891816        864.0145896538022
34.186793208802996        864.1123223445561        864.113643268746         864.1148495366101
34.35026992579187         864.2126219506523        864.2139309483105        864.2151094194181
34.51374664278075         864.307627893474         864.3089258864876        864.3100781018614
34.67722335976963         864.4026338362954        864.4039208246646        864.4050467843048
34.840700076758495        864.497639779117         864.4989157628418        864.5000154667481
35.00412968438576         864.6328387185766        864.6340965152197        864.6351580121236
35.16755929201301         864.7680376580362        864.7692772675974        864.770300557499
35.330988899640275        864.9032365974957        864.9044580199752        864.9054431028744
35.49442623011527         865.0053932624174        865.006600167921         865.0075561672144
35.65786356059027         865.107549927339         865.1087423158667        865.1096692315541
35.82130089106527         865.2097065922607        865.2108844638125        865.211782295894
35.984679873077           865.3057015971914        865.3068649176096        865.3077351379259
36.14805885508872         865.401696602122         865.4028453714067        865.4036879799576
36.31143783710045         865.4976916070526        865.4988258252038        865.4996408219894
36.474828668111996        865.5855883255707        865.5867100071453        865.5875000126198
36.638219499123544        865.6734850440887        865.6745941890866        865.6753592032501
36.801610330135084        865.7613817626067        865.762478371028         865.7632183938804
36.96556505608119         865.8362776074664        865.8373621302893        865.8380804229928
37.12951978202729         865.9111734523261        865.9122458895505        865.912942452105
37.29347450797339         865.9860692971858        865.9871296488118        865.9878044812173
37.45772071644735         866.0454038905309        866.0464541173016        866.0471115851838
37.621966924921296        866.1047384838758        866.1057785857913        866.1064186891501
37.78621313339526         866.1640730772209        866.1651030542811        866.1657257931165
37.95045934186922         866.2194170437273        866.2204390685982        866.2210461098614
38.11470555034319         866.2747610102335        866.2757750829153        866.2763664266062
38.27895175881714         866.3301049767398        866.3311110972325        866.3316867433509
38.44336449537359         866.3837208344863        866.3847203151352        866.3852810903468
38.607777231930015        866.4373366922329        866.4383295330376        866.4388754373425
38.772189968486444        866.4909525499794        866.4919387509402        866.4924697843384
38.93660270504287         866.5479031186769        866.5488824250734        866.5493976975683
39.1010154415993          866.6048536873743        866.6058260992064        866.6063256107982
39.26542817815574         866.6618042560718        866.6627697733394        866.663253524028
39.42971596026679         866.7171011446079        866.718060387786         866.7185289626707
39.594003742377836        866.7723980331439        866.7733510022323        866.7738044013131
39.75829152448888         866.8276949216798        866.8286416166787        866.8290798399556
39.92256692729922         866.8715380434834        866.8724787933019        866.8729046778162
40.086842330109555        866.9153811652869        866.9163159699249        866.9167295156767
40.25111773291989         866.9592242870905        866.960153146548         866.9605543535373
40.415597841294115        867.0262602806464        867.0271780546639        867.0275598042189
40.58007794966833         867.0932962742022        867.0942029627797        867.0945652549003
40.74455805804255         867.160332267758         867.1612278708956        867.1615707055818
40.90903816641677         867.1986583661559        867.1995473296256        867.1998789729215
41.073518274790985        867.2369844645536        867.2378667883555        867.2381872402611
41.237998383165205        867.2753105629514        867.2761862470855        867.2764955076009
41.40253072347766         867.3185374703281        867.3194056850317        867.3197023440081
41.56706306379011         867.3617643777046        867.3626251229778        867.3629091804152
41.731595404102556        867.4049912850812        867.4058445609238        867.4061160168224
41.8961832685236          867.4440323924623        867.4448797075237        867.4451400555241
42.060771132944645        867.4830734998432        867.4839148541234        867.4841640942257
42.225358997365696        867.522114607224         867.5229500007233        867.5231881329272
42.38929529113558         867.5530540542663        867.5538836000778        867.55411259162
42.55323158490547         867.5839935013084        867.5848171994321        867.5850370503126
42.717167878675355        867.6149329483507        867.6157507987864        867.6159615090054
42.880933505179094        867.6419589895912        867.6427724270422        867.6429753550503
43.04469913168283         867.6689850308315        867.669794055298         867.6699892010952
43.208464758186565        867.696011072072         867.6968156835538        867.69700304714
43.372230384690305        867.7206136627148        867.7214142755095        867.7215945634083
43.53599601119404         867.7452162533573        867.746012867465         867.7461860796765
43.699761637697776        867.7698188439999        867.7706114594205        867.7707775959447
43.86335519406709         867.7946909542385        867.7954808503305        867.7956402289258
44.026948750436404        867.8195630644768        867.8203502412404        867.8205028619068
44.19054230680572         867.8444351747153        867.8452196321504        867.8453654948878
44.354330719356156        867.8706658248285        867.8714473412324        867.8715860434982
44.518119131906595        867.8968964749415        867.8976750503143        867.8978065921085
44.68190754445702         867.9231271250546        867.9239027593962        867.9240271407189
44.8458126999632          867.950576445721         867.9513480239915        867.9514646273179
45.00971785546937         867.9780257663873        867.9787932885866        867.978902113917
45.17362301097553         868.0054750870537        868.0062385531819        868.0063396005161
45.337528166481704        868.0324041314901        868.0331639866915        868.0332575237485
45.501433321987875        868.0593331759266        868.060089420201         868.0601754469808
45.66533847749404         868.086262220363         868.0870148537107        868.0870933702131
45.8293132810623          868.1107367542338        868.1114856008548        868.111557166153
45.99328808463055         868.1352112881045        868.1359563479988        868.1360209620927
46.157262888198794        868.1596858219752        868.1604270951427        868.1604847580326
46.32121423323489         868.1701614870033        868.1708995698791        868.1709538063001
46.485165578270966        868.1806371520311        868.1813720446154        868.1814228545675
46.64911692330706         868.191112817059         868.1918445193518        868.1918919028349
46.812914052466795        868.2112383058519        868.2119657146327        868.2120070480972
46.97671118162652         868.2313637946447        868.2320869099135        868.2321221933595
47.140508310786245        868.2514892834376        868.2522081051943        868.2522373386217
47.304463769933385        868.2662494645444        868.2669650364691        868.2669898169469
47.46841922908053         868.2810096456512        868.2817219677437        868.2817422952719
47.63237468822767         868.295769826758         868.2964788990184        868.2964947735969
47.79633014737481         868.3102906670165        868.310998621556         868.3110107126885
47.96028560652195         868.3248115072748        868.3255183440934        868.3255266517799
48.124241065669096        868.3393323475332        868.340038066631         868.3400425908715
48.28823108182557         868.358635350996         868.3593386989688        868.3593379355259
48.452221097982054        868.3779383544587        868.3786393313064        868.3786332801802
48.616211114138544        868.3972413579215        868.3979399636441        868.3979286248345
48.780369399810176        868.408946855861         868.4096433352593        868.4096285918662
48.944527685481795        868.4206523538004        868.4213467068741        868.4213285588976
49.10868597115343         868.4323578517399        868.4330500784891        868.4330285259291
49.27284706089986         868.4480383261914        868.448728180622         868.4487022128352
49.43700815064629         868.4637188006427        868.4644062827546        868.4643758997412
49.601169240392736        868.479399275094         868.4800843848873        868.4800495866473
49.76533033013917         868.4910779132853        868.4917611204994        868.4917230019431
49.92949141988561         868.5027565514764        868.5034378561113        868.5033964172388
50.093652509632044        868.5144351896676        868.5151145917233        868.5150698325346
50.2577775787177          868.5251171379006        868.5257937389817        868.5257456431297
50.42190264780336         868.5357990861334        868.53647288624          868.5364214537246
50.586027716889014        868.5464810343661        868.5471520334983        868.5470972643196
50.74991957486261         868.5562864715597        868.5569546666935        868.5568967680879
50.913811432836184        868.566091908753         868.5667572998885        868.5666962718559
51.07770329080977         868.5758973459465        868.5765599330837        868.5764957756239
51.24139395514381         868.5854750148708        868.5861359358255        868.5860690417974
51.40508461947785         868.5950526837948        868.5957119385671        868.5956423079706