% Model:              Cav_Hex_Unif_flux_v5.1.2 - Wall Distn.mph
% Version:            COMSOL 5.5.0.359
% Date:               Nov 29 2021, 10:20
% Table:              Evaluation Group 1 - 
% LD_ratio               Q_abs (W)                Q_BHS (W)                T_g_in (K)               T_g_out (K)              Q_rad_loss (W)           Q_rad_loss_int (W)       Q_rad_loss_front (W)     Q_abs_out (W)            Q_abs_in (W)             BHS_front (W)            BHS_interior (W)         BHS_int(x-walls) (W)     BHS_int(y-walls) (W)
10                       1.7621669400517759       1.8879000902857999       363.2308462469875        838.0751776432222        0.17470595935325642      0.04779780789820731      0.1269081514550491       1.7674775894321382       -0.08061144834051212     1.3180731067010654       0.5698269835847345       0.18490522339771415      0.3849217601870204
20                       1.8461193103131948       1.900757970775417        362.9108876081291        861.9827422257943        0.12994123767233592      0.03585841080444305      0.09408282686789238      1.8291451939270993       -0.07991784582655401     1.3180731067010698       0.5826848640743472       0.19647518721629537      0.38620967685805185
40                       1.838220564193413        1.9003481535524385       369.0416724092545        870.651079595483         0.12502261724790265      0.034668372755858615     0.09035424449204414      1.8334214083330669       -0.07890227110992057     1.3180731067010767       0.5822750468513618       0.19674516126153077      0.38552988558983103
80                       1.8075036855013376       1.8987733693239295       378.4990193634079        880.1975275185035        0.13041245776722268      0.03626221890935377      0.09415023885786925      1.8242245300393045       -0.07722960543948705     1.318073106701073        0.5807002626228565       0.19982184739663536      0.3808784152262211
