% Model:              Cav_Hex_Unif_flux_v5.1.1 - Lin. Distn.mph
% Version:            COMSOL 5.5.0.359
% Date:               May 16 2022, 14:50
% Dimension:          3
% Nodes:              5925
% Expressions:        1
% Description:        Surface
% x                       y                        z                        Color
-0.5                      0.3660152675488009       18.25639378854915        1.2351058533066395E-264
-0.5                      0.5                      18.4                     8.234039022044263E-265
-0.5                      0.29999999999999993      18.4                     1.2351058533066395E-264
-0.5                      0.18830369900422306      18.20494212724502        1.3091794963069896E-35
-0.5                      0.09999999999999985      18.4                     1.9637692444604843E-35
-0.5                      -0.10000000000000009     18.4                     0
-0.5                      -0.01162756829302733     18.23088456810806        1.3091794963069896E-35
-0.5                      0.046199852951844145     18.078855552041666       1.9637692444616753E-225
-0.5                      -0.19833197621918575     18.241221475768963       6.864687295236144E-55
-0.5                      -0.30000000000000004     18.4                     1.963769244460524E-38
-0.5                      -0.358014985260779       18.263333004561456       1.963769244460524E-38
-0.5                      -0.5                     18.4                     1.309179496307016E-38
-0.5                      0.1745738916473243       17.98744097562731        1.0868316420919665E-184
-0.5                      0.3202481564154048       17.88314606741573        7.753867809246728E-113
-0.5                      0.34158098863095876      18.084875477573696       5.169245206164485E-113
-0.5                      0.5                      18.19325842696629        9.818846222303194E-62
-0.5                      0.5                      17.986516853932578       7.855076977842556E-62
-0.5                      0.5                      17.779775280898875       7.24554428061264E-163
-0.5                      0.16168391462057596      17.77619062026495        1.3091794963068872E-14
-0.5                      0.3202481564153994       17.676404494382016       1.9637692444603307E-14
-0.5                      0.15881556051590673      17.57303370786516        1.9637692444603307E-14
-0.5                      -0.01154373313374224     17.899117712687175       4.576458196823983E-50
-0.5                      -0.0019066642025075964   17.676707694998473       4.576458196823983E-50
-0.5                      -0.1089681590214777      18.07248487520746        4.576458196824096E-55
-0.5                      -0.18440717890797706     17.936581586911945       0
-0.5                      -0.16739981933052997     17.760742600947985       1.3091794963070012E-41
-0.5                      -0.31138114473983003     18.0806264067368         6.864687295236144E-55
-0.5                      -0.3303823368104455      17.871580955374192       0
-0.5                      -0.5                     18.19325842696629        0
-0.5                      0.5                      17.57303370786516        7.85507697784166E-27
-0.5                      0.32024815641540294      17.469662921348306       6.862682275399668E-98
-0.4999999999999999       0.4999999999999999       17.366292134831454       1.005611328412767E-89
-0.5                      0.3202481564154035       17.2629213483146         1.5235011625110046E-84
-0.5                      0.17190073743383827      17.36629213483145        6.86268227539974E-101
-0.5                      0.005403705212924548     17.469367864539265       6.86268227539974E-101
-0.5                      -0.15779775384138262     17.571263367010918       9.818846222302509E-42
-0.5                      0.01791134752879653      17.262872172179758       1.3091794963070719E-55
-0.5                      -0.1404963128308071      17.36629213483145        8.836961600072186E-38
-0.5                      -0.32024815641540294     17.469662921348306       5.891314279278939E-38
-0.5                      -0.3202481564153993      17.676404494382016       9.917034684525534E-42
-0.5                      -0.5                     17.779775280898875       9.818846222302583E-43
-0.5                      -0.5                     17.986516853932578       0
-0.5                      0.5                      17.159550561797747       2.288229753001784E-53
-0.5                      0.1719007374338387       17.159550561797747       8.671008301118691E-151
-0.5                      0.3202481564154003       16.64269662921347        7.855076977841989E-40
-0.5                      0.5                      16.746067415730334       6.5458974815349905E-40
-0.5                      0.3202481564154016       16.849438202247185       6.611356456350382E-47
-0.5                      0.5                      16.95280898876404        6.54589748153478E-30
-0.5                      0.32024815641540294      17.056179775280896       6.546126304445026E-49
-0.5                      0.17190073743383982      16.74606741573033        6.545897481619242E-32
-0.5                      0.1719007374338395       16.95280898876404        1.0137312198243127E-42
-0.5                      0.01999595458144321      17.056171579258418       1.3091794963070719E-55
-0.5                      0.020343389090218933     16.849436836243438       9.818846222428853E-32
-0.5                      -0.140496312830805       16.95280898876404        0
-0.5                      0.020401294841681183     16.642696401546182       1.3091794963069528E-31
-0.5                      -0.1404963128308062      17.159550561797747       9.818846222303039E-56
-0.5                      -0.3202481564154034      17.2629213483146         5.891307733381457E-38
-0.4999999999999999       -0.4999999999999999      17.366292134831454       8.606301827206607E-63
-0.5                      -0.5                     17.57303370786516        8.719135445404696E-43
-0.5                      -0.5                     17.159550561797747       7.245544280612498E-157
-0.5                      -0.32024815641540294     17.056179775280896       9.818846222302106E-28
-0.5                      -0.3202481564154017      16.849438202247185       1.3091794963069475E-27
-0.4999999999999999       0.4999999999999999       16.539325842696616       9.818846222302486E-40
-0.5                      0.17190073743383905      16.539325842696616       8.606301827206521E-60
-0.5                      0.3202481564154025       16.435955056179758       6.454729801746029E-60
-0.4999999999999999       0.4999999999999999       16.33258426966291        8.23403902204291E-212
-0.5                      0.1719007374338385       16.332584269662906       9.818846222302275E-33
-0.5                      0.32024815641540294      16.229213483146054       4.575121516932639E-66
-0.5                      0.1719007374338385       16.125842696629203       1.30917949630697E-32
-0.5                      0.020412554293351648     16.229213476821965       9.818846222302275E-33
-0.5                      0.020412822375534434     16.022471909058336       5.891307733381332E-31
-0.5                      0.17190073743383882      15.919101123595496       8.836961600072032E-31
-0.5                      -0.14049631283080133     16.746067415730334       1.3091794963069554E-29
-0.5                      0.020410945800256822     16.435955018235216       5.7852486589423344E-136
-0.5                      -0.140496312830803       16.539325842696616       6.546486612308116E-30
-0.5                      -0.3202481564154003      16.64269662921347        6.545897481534777E-30
-0.5                      -0.14049631283080521     16.332584269662906       8.836961600072066E-34
-0.5                      -0.3202481564154025      16.43595505617976        5.8913077333813775E-34
-0.5                      -0.5                     16.95280898876404        1.080073084453232E-27
-0.5                      -0.5                     16.746067415730334       1.6743428579984023E-77
-0.5                      -0.32024815641540294     16.229213483146054       9.818846222302945E-54
-0.4999999999999999       0.4999999999999999       16.125842696629203       7.855076977841307E-13
-0.5                      0.32024815641540383      16.02247191011235        7.51160908151145E-82
-0.5                      0.3202481564154027       15.815730337078646       6.568773089119717E-43
-0.5                      0.1719007374338393       15.71235955056179        6.634232063935068E-43
-0.5                      0.3202481564154014       15.608988764044936       1.0299414461531869E-42
-0.5000000000000001       0.5000000000000001       15.712359550561793       3.753516979996813E-43
-0.5                      0.5                      15.9191011235955         6.545897481534423E-13
-0.5                      0.17190073743383905      15.505617977528082       6.54589748153477E-32
-0.5                      0.020412874502626743     15.608988764015656       9.818846222302553E-45
-0.5                      0.020412875743748726     15.40224719100635        9.818846222302155E-32
-0.5                      0.020412867055899286     15.815730336902975       8.836961600072095E-31
-0.5                      -0.14049631283080727     16.1258426966292         6.682557431307356E-66
-0.5                      -0.14049631283080696     15.919101123595496       2.5846226068354106E-70
-0.5                      -0.14049631283080408     15.712359550561793       3.8769354130398295E-70
-0.4999999999999999       -0.4999999999999999      16.539325842696616       1.3394742863987218E-77
-0.4999999999999999       -0.4999999999999999      16.33258426966291        5.115825238643081E-77
-0.4999999999999999       -0.4999999999999999      16.125842696629203       5.8913077333813633E-33
-0.5                      -0.32024815641540294     15.815730337078646       2.2882290984119985E-48
-0.5                      -0.32024815641540383     16.02247191011235        6.545897482065515E-54
-0.5                      -0.3202481564154014      15.608988764044936       2.2882290984119982E-48
-0.5                      0.5                      15.505617977528082       3.753516979996813E-43
-0.5                      0.3202481564154033       15.40224719101123        9.818846222301848E-20
-0.5                      0.5                      15.298876404494376       3.8266341338331567E-62
-0.5                      0.3202481564154004       15.195505617977519       6.545897481534565E-20
-0.4999999999999999       0.4999999999999999       15.092134831460662       4.591960960599788E-62
-0.5                      0.3202481564154044       14.988764044943808       1.142955965417089E-99
-0.5                      0.1719007374338386       15.092134831460664       7.162454853880666E-38
-0.5                      0.1719007374338393       15.298876404494376       7.855076977849333E-20
-0.5                      0.020412875950601372     15.195505617976705       8.234039022043144E-221
-0.5                      0.02041287598507635      14.988764044943673       5.218137455306512E-60
-0.5                      -0.1404963128308052      15.505617977528082       3.432343662717415E-65
-0.5                      -0.14049631283080324     15.298876404494377       2.7458749180945995E-65
-0.5000000000000001       -0.5000000000000001      15.712359550561793       2.2882290984119982E-48
-0.5                      -0.5                     15.9191011235955         5.8913077333813633E-33
-0.5                      -0.14049631283080466     15.09213483146066        2.8177784544707374E-70
-0.5                      -0.5                     15.505617977528082       2.5170520082533017E-63
-0.5                      -0.3202481564154033      15.40224719101123        7.855076977842246E-49
-0.5                      -0.3202481564154003      15.195505617977519       6.5458974815351814E-49
-0.5                      -0.3202481564154044      14.988764044943808       6.545897485517698E-60
-0.5                      0.5                      14.885393258426959       4.504220375996675E-77
-0.5                      0.5                      14.265168539325838       2.2876334833878734E-50
-0.5                      0.5                      14.471910112359543       6.545920357142609E-44
-0.5                      0.3202481564154037       14.368539325842692       6.548185042293782E-47
-0.5                      0.3202481564154016       14.161797752808981       6.545897481534697E-26
-0.5                      0.1719007374338387       14.885393258426957       7.06956928005754E-29
-0.5                      0.5                      14.678651685393252       3.7535169799972295E-77
-0.5                      0.32024815641540194      14.575280898876397       2.745072910159505E-60
-0.5                      0.17190073743383893      14.471910112359543       7.855077005292834E-47
-0.5                      0.3202481564154027       14.782022471910107       1.142955965417089E-99
-0.5                      0.1719007374338393       14.67865168539325        8.836961600071925E-29
-0.5                      0.17190073743383905      14.265168539325837       6.545897488080847E-38
-0.5                      0.020412875990822643     14.782022471910082       7.069569280136091E-29
-0.5                      0.02041287599178032      14.575280898876391       7.855076977841685E-28
-0.5                      -0.14049631283080477     14.678651685393252       6.545897481541283E-28
-0.5                      0.020412875991940305     14.36853932584269        6.54589748153495E-38
-0.5                      0.02041287599196684      14.161797752808981       6.545897481910346E-38
-0.5                      -0.1404963128308072      14.885393258426959       6.545897481534993E-40
-0.5                      -0.1404963128308051      14.471910112359542       6.545897481534738E-28
-0.4999999999999999       -0.4999999999999999      15.092134831460662       1.1429559654171181E-107
-0.5                      -0.5                     15.298876404494376       2.9421505066197264E-48
-0.5                      -0.5                     14.885393258426959       7.20048722968862E-45
-0.5                      -0.3202481564154027      14.782022471910105       2.288229098412535E-32
-0.5                      -0.32024815641540183     14.575280898876398       2.2882290984118803E-32
-0.5                      -0.3202481564154034      14.368539325842692       2.2882290984118988E-37
-0.5                      0.5                      14.058426966292128       6.552443451020909E-17
-0.4999999999999999       0.4999999999999999       13.851685393258421       6.545897481534496E-13
-0.5                      0.32024815641540294      13.955056179775275       7.855076977841637E-26
-0.5                      0.3202481564154016       13.748314606741566       7.227914552103534E-20
-0.5                      0.17190073743383905      13.851685393258418       4.303150913603105E-49
-0.5                      0.17190073743383905      13.64494382022471        6.545897481534682E-22
-0.5                      0.17190073743383905      14.058426966292128       5.164417357571077E-49
-0.5                      0.020412875991971502     13.955056179775273       3.7535169799967954E-35
-0.5                      0.020412875991971946     13.748314606741562       2.2875607620888955E-40
-0.5                      -0.14049631283080466     13.851685393258421       3.7535398556043373E-35
-0.5                      0.02041287599197228      13.541573033707856       6.545897481534604E-24
-0.5                      -0.14049631283080466     14.058426966292128       3.75351926822619E-35
-0.5                      -0.1404963128308051      14.265168539325838       2.288229473763644E-41
-0.5                      -0.3202481564154016      14.161797752808983       2.3111151429130304E-39
-0.5                      -0.5                     14.678651685393252       2.2882290984126E-32
-0.5                      -0.5                     14.265168539325838       6.5688049453271815E-31
-0.5                      -0.5                     14.471910112359543       6.568804943038952E-31
-0.5                      -0.32024815641540294     13.955056179775275       2.2882328519943733E-39
-0.5                      -0.3202481564154016      13.748314606741566       6.546259766967959E-50
-0.5                      0.5                      13.64494382022471        7.16245564962898E-20
-0.5                      0.5                      13.438202247191006       5.302176960043248E-37
-0.5                      0.3202481564154035       13.54157303370786        7.227913835858049E-20
-0.5                      0.17190073743383905      13.438202247191002       8.594945824656744E-36
-0.5                      0.5                      13.231460674157296       7.855076977841622E-23
-0.5                      0.3202481564154013       13.334831460674152       6.545897481534685E-23
-0.5                      0.32024815641540416      13.128089887640442       6.545897481534632E-23
-0.5                      0.17190073743383893      13.231460674157296       3.753516980001987E-39
-0.5                      0.020412875991971946     13.334831460674152       7.855076977905145E-24
-0.5                      0.17190073743383905      13.024719101123587       6.5458974815346624E-24
-0.5                      0.3202481564154005       12.921348314606734       6.552443379022015E-36
-0.5                      0.1719007374338385       12.817977528089878       5.302176960042884E-13
-0.5                      0.02041287599197239      13.128089887640442       6.545962940509467E-24
-0.5                      -0.1404963128308051      13.64494382022471        5.5309330358899405E-39
-0.5                      -0.14049631283080474     13.438202247191006       7.855076977905151E-24
-0.5                      -0.3202481564154035      13.54157303370786        2.745072910159297E-34
-0.5                      -0.32024815641540116     13.334831460674152       3.927538488920542E-6
-0.5                      -0.14049631283080474     13.438202247191006       3.927538488920542E-6
-0.5                      -0.3202481564154035      13.54157303370786        3.927538488920542E-6
-0.5                      -0.5                     14.058426966292128       2.5170932969399046E-39
-0.5                      0.5                      13.02471910112359        5.568797859422049E-48
-0.4999999999999999       0.4999999999999999       12.817977528089877       6.545897481534911E-36
-0.5                      0.32024815641540405      12.714606741573025       9.818846222302367E-36
-0.5                      0.5                      12.611235955056175       5.8173588965217365E-34
-0.5                      0.3202481564154036       12.507865168539324       4.653887117217389E-34
-0.5                      0.1719007374338385       12.611235955056173       6.362612352051462E-13
-0.5                      0.020412875991971058     12.714606741573027       5.302176960042884E-13
-0.5                      0.020412875991971724     12.50786516853932        7.162454853880863E-49
-0.4999999999999999       -0.4999999999999999      13.851685393258421       3.7535235258943075E-44
-0.5                      -0.5                     13.64494382022471        2.287560758466081E-34
-0.5                      -0.14049631283080533     13.231460674157296       6.362612352051923E-35
-0.5                      -0.32024815641540116     13.334831460674152       6.260124768877246E-49
-0.5                      0.020412875991971616     12.921348314606734       6.545962940509467E-24
-0.5                      -0.32024815641540416     13.128089887640442       7.162454853880196E-18
-0.5                      -0.14049631283080466     13.024719101123589       4.532829012501297E-28
-0.5                      -0.1404963128308048      12.817977528089877       3.8782392643478208E-28
-0.5                      -0.3202481564154005      12.921348314606734       7.16245485426802E-18
-0.5                      -0.14049631283080766     12.611235955056177       4.303154667120032E-45
-0.5                      -0.32024815641540405     12.714606741573027       4.303150913603052E-45
-0.5                      -0.5                     13.02471910112359        7.878700339268196E-17
-0.4999999999999999       -0.4999999999999999      12.817977528089877       3.377971717942132E-70
-0.5                      -0.5                     13.231460674157296       1.1390904231494636E-54
-0.5                      -0.5                     13.438202247191006       2.745072910159297E-34
-0.5000000000000001       0.5000000000000001       12.404494382022472       3.878239264347825E-34
-0.5                      0.1719007374338395       12.40449438202247        5.302176960043557E-18
-0.5                      0.1719007374338386       11.99101123595505        6.545897481534952E-38
-0.5                      0.32024815641540416      11.887640449438196       6.552443379016507E-39
-0.5                      0.32024815641540116      12.094382022471905       6.545902698305593E-38
-0.5                      0.5                      11.991011235955048       5.216770640730914E-44
-0.5                      0.5                      12.19775280898876        5.216777841225004E-44
-0.5                      0.32024815641540183      12.301123595505617       5.302176960043557E-18
-0.5                      0.1719007374338395       12.19775280898876        5.302176960043557E-18
-0.5                      0.17190073743383882      11.784269662921343       7.953265440064527E-21
-0.5                      0.020412875991972834     12.301123595505613       6.237389322262461E-41
-0.5                      0.02041287599197206      12.094382022471905       7.484800275191181E-41
-0.5                      0.020412875991971616     11.887640449438196       5.30217696041837E-21
-0.5                      0.020412875991971835     11.68089887640449        6.362612352051621E-21
-0.5                      -0.3202481564154036      12.507865168539324       4.303150913603052E-45
-0.5                      -0.1404963128308028      12.19775280898876        7.855076978590247E-31
-0.5                      -0.14049631283080544     12.404494382022472       6.545897481534806E-31
-0.5                      -0.32024815641540183     12.301123595505617       6.5458974815347995E-31
-0.5                      0.02041287599197206      12.094382022471905       3.9275384889205863E-7
-0.5                      -0.1404963128308028      12.19775280898876        3.9275384889205863E-7
-0.5                      -0.14049631283080544     11.991011235955048       3.9275384889205863E-7
-0.5                      -0.14049631283080544     11.991011235955048       1.5418737926429588E-28
-0.5                      -0.5                     12.611235955056175       5.46847584155672E-69
-0.5000000000000001       -0.5000000000000001      12.404494382022472       6.545897481534974E-39
-0.5                      -0.3202481564154013      12.094382022471905       1.2811484452872738E-28
-0.5                      -0.32024815641540416     11.887640449438196       1.3199302487999787E-28
-0.5000000000000001       0.5000000000000001       11.784269662921346       6.545897481535039E-42
-0.5                      0.32024815641540244      11.680898876404491       8.451385251355878E-40
-0.5                      0.17190073743383905      11.577528089887634       1.9275293242301996E-36
-0.5                      0.020412875991971835     11.68089887640449        3.9275384889206255E-10
-0.5                      0.17190073743383905      11.577528089887634       3.9275384889206255E-10
-0.5                      0.17190073743383882      11.784269662921343       3.9275384889206255E-10
-0.5                      0.17190073743383905      11.577528089887634       3.1813061760256565E-5
-0.5                      0.32024815641540183      11.47415730337078        3.1813061760256565E-5
-0.5                      0.32024815641540244      11.680898876404491       3.1813061760256565E-5
-0.5000000000000001       0.5000000000000001       11.577528089887638       6.181365630504119E-38
-0.5                      0.32024815641540183      11.47415730337078        6.362619101434808E-32
-0.5000000000000001       0.5000000000000001       11.37078651685393        1.2872676424575707E-35
-0.5                      0.32024815641540294      11.267415730337074       5.302176960697758E-32
-0.5                      0.020412875991972168     11.474157303370783       6.853817408908582E-36
-0.5                      0.17190073743383893      11.370786516853931       5.302861953960133E-32
-0.5                      0.02041287599197228      11.267415730337074       6.545897481534443E-14
-0.5                      -0.14049631283080632     11.784269662921346       1.2811788453922213E-26
-0.5                      -0.1404963128308048      11.577528089887638       5.356479870954366E-23
-0.5                      -0.14049631283080474     11.370786516853931       6.545897534561578E-17
-0.5                      -0.32024815641540244     11.680898876404491       6.364150187012643E-23
-0.5                      -0.32024815641540244     11.474157303370783       6.426238475580828E-23
-0.5                      -0.5                     12.19775280898876        6.61070841249952E-33
-0.5                      -0.5                     11.991011235955048       7.2652956360326E-33
-0.5000000000000001       -0.5000000000000001      11.784269662921346       4.6538871172173676E-30
-0.5                      -0.32024815641540233     11.267415730337074       6.611356456387388E-15
-0.5                      0.5                      11.16404494382022        6.545897481534525E-18
-0.5                      0.17190073743383916      11.16404494382022        1.281141310610324E-45
-0.5                      0.32024815641540244      11.060674157303366       6.545897481534525E-18
-0.5                      0.17190073743383893      10.957303370786512       6.545897481534816E-31
-0.5                      0.020412875991971946     11.060674157303364       6.545897481909791E-14
-0.5                      0.5                      10.957303370786512       6.545897481534525E-18
-0.5                      0.32024815641540294      10.853932584269659       7.855076985696841E-31
-0.5                      0.5                      10.750561797752805       2.2875607584719487E-31
-0.5                      0.32024815641540294      10.647191011235952       4.1745099641814654E-50
-0.5                      0.17190073743383893      10.750561797752805       7.855076977841764E-31
-0.5                      0.020412875991971835     10.853932584269659       5.6302834232603136E-24
-0.5                      -0.14049631283080466     11.16404494382022        7.207033127169981E-14
-0.5                      -0.1404963128308051      10.957303370786512       3.759091080032964E-24
-0.5                      -0.14049631283080588     10.750561797752805       3.0494181448629036E-37
-0.5000000000000001       -0.5000000000000001      11.577528089887638       3.927538488920638E-11
-0.5                      -0.32024815641540244     11.680898876404491       3.927538488920638E-11
-0.5000000000000001       -0.5000000000000001      11.784269662921346       3.927538488920638E-11
-0.5000000000000001       -0.5000000000000001      11.577528089887638       8.145436636597899E-24
-0.5000000000000001       -0.5000000000000001      11.37078651685393        3.9275384889205596E-5
-0.5                      -0.32024815641540244     11.474157303370783       3.9275384889205596E-5
-0.5000000000000001       -0.5000000000000001      11.577528089887638       3.9275384889205596E-5
-0.5000000000000001       -0.5000000000000001      11.37078651685393        6.5614483210728546E-24
-0.5                      -0.32024815641540233     11.060674157303366       6.545897481540032E-15
-0.5                      -0.32024815641540283     10.853932584269659       2.5411306285442358E-37
-0.5                      -0.5                     11.16404494382022        3.758293477623499E-26
-0.5                      -0.32024815641540283     10.647191011235952       1.1416315537753227E-34
-0.5                      -0.14049631283080455     10.543820224719099       1.1391426420123467E-34
-0.5                      0.5                      10.543820224719099       3.898639006129885E-49
-0.5                      0.5                      10.130337078651682       6.545901235051422E-14
-0.5                      0.5                      10.33707865168539        7.200487229688695E-51
-0.5                      0.32024815641540244      10.233707865168535       5.216770640730748E-34
-0.5                      0.3202481564154017       10.440449438202245       5.216770640730748E-34
-0.5                      0.1719007374338393       10.543820224719097       2.1661858860471E-56
-0.5                      0.02041287599197228      10.647191011235952       7.673864352730194E-42
-0.5                      -0.14049631283080588     10.750561797752805       3.9275384889206006E-8
-0.5                      0.02041287599197228      10.647191011235952       3.9275384889206006E-8
-0.5                      0.020412875991971835     10.853932584269659       3.9275384889206006E-8
-0.5                      0.17190073743383893      10.750561797752805       3.92753848892064E-11
-0.5                      0.020412875991971835     10.853932584269659       3.92753848892064E-11
-0.5                      0.02041287599197228      10.647191011235952       3.92753848892064E-11
-0.5                      0.17190073743383916      10.33707865168539        6.545897481535111E-21
-0.5                      0.0204128759919725       10.440449438202245       5.3021769607499E-28
-0.5                      0.17190073743383905      10.130337078651682       5.137499522628191E-13
-0.5                      0.02041287599197228      10.233707865168535       5.137491667551219E-13
-0.5                      -0.1404963128308039      10.33707865168539        6.362612352114371E-28