% Model:              Cav_Hex_Unif_flux_v5.1.1 - Lin. Distn.mph
% Version:            COMSOL 5.5.0.359
% Date:               Nov 15 2021, 18:49
% Table:              Evaluation Group 1 - 
% m (1/m)                LD_ratio                 Thermal Efficiency (1)   Power absorbed by gas (W)BHS_integral (W)         T_in (K)                 T_out (K)                Q_rad_loss (W)           Q_rad_loss_int (W)       Q_rad_loss_front (W)     Q_abs_out (W)            Q_abs_in (W)
10                       10                       1.0152260899991135       1.7426605448472665       1.7165245869999146       362.77982997247756       832.7788250029383        0.006058260483633107     0.006058260483633107     0                        1.7515775138977907       -0.08113460814308945
10                       20                       1.0312475483486967       1.8015095823057032       1.7469225359036267       361.6719240176205        849.8315191965581        0.004306727129429722     0.004306727129429722     0                        1.7918142403272699       -0.08045665747538003
10                       40                       1.0251142284151515       1.8012437203020981       1.757115129585958        367.87237542658767       860.4616159072314        0.004112406443044658     0.004112406443044658     0                        1.8022445925054398       -0.07940910408966319
10                       80                       1.0112418550325974       1.7682249880753833       1.748567841882281        377.04546593262006       868.9870905897567        0.004269107549349164     0.004269107549349164     0                        1.7907368246171074       -0.07773396792500578
100                      10                       1.0161563786658727       1.7704648874788327       1.7423153804371165       363.3839781734208        840.0075597291601        0.007167235923834567     0.007167235923834567     0                        1.7750344272022247       -0.08113460555008914
100                      20                       1.0313700292941852       1.805625104437141        1.7507054240007485       361.76315155138786       850.9062760832213        0.004619592193369078     0.004619592193369078     0                        1.7952726330056423       -0.08045665650683721
100                      40                       1.0251598655836618       1.8023388386421848       1.7581051494013042       367.90342753368896       860.7555928769731        0.004226351837235822     0.004226351837235822     0                        1.8031782420676024       -0.07940910380504022
100                      80                       1.0112454172093224       1.7682320247012997       1.748568640816184        377.04395488508266       868.9876542086627        0.004306302506014168     0.004306302506014168     0                        1.7907385715131623       -0.07773396783777939
1000                     10                       1.0168106276428241       1.81104930034473         1.781107760983099        364.3233491867131        850.5734478999368        0.011069339056099872     0.011069339056099872     0                        1.8093202580694914       -0.08113460310586323
1000                     20                       1.0316677391771194       1.8153851226512148       1.7596606482036603       361.9855871292646        853.4584060025193        0.005409229904885928     0.005409229904885928     0                        1.803484993171159        -0.08045665530038136
1000                     40                       1.025203955267007        1.8036505022043066       1.7593089579278487       367.94271410441115       861.1093240912886        0.004395472368828313     0.004395472368828313     0                        1.8043016744331823       -0.07940910367306458
1000                     80                       1.0112404793927754       1.7682252950699449       1.7485705241266845       377.04584237949905       868.9874664295968        0.004337888734115399     0.004337888734115399     0                        1.7907379880766658       -0.07773396782449143
