% Model:              Cav_Hex_Unif_flux_v5.2.1 - Lin. Distn.mph
% Version:            COMSOL 5.5.0.359
% Date:               Dec 7 2021, 15:23
% Dimension:          1
% Nodes:              1834
% Expressions:        1
% Description:        Line graph
% x                       Height
0                         317.9908187014694
0.46767508660203133       317.97248064144645
0.9353501732040627        317.9541425814235
1.403025259806094         317.93580452140066
1.8707003464081253        317.9174664613777
2.3439008987827656        317.80759155369475
2.8171014511574057        317.6977166460117
3.2903020035320463        317.58784173832873
3.763502555906687         317.4779668306457
4.314059629097845         316.9870482512651
4.8646167022890054        316.4961296718845
5.415173775480164         316.0052110925039
5.965730848671323         315.5142925131233
6.617852306756895         315.10352109544294
7.269973764842465         314.69274967776266
7.922095222928036         314.2819782600823
8.574216681013608         313.871206842402
9.226338139099177         314.14328767662244
9.878459597184749         314.4153685108429
10.530581055270321        314.6874493450633
11.182702513355892        314.9595301792838
11.838948906476652        315.6328835238355
12.49519529959741         316.30623686838726
13.151441692718171        316.97959021293906
13.80768808583893         317.6529435574908
14.463934478959688        319.6375338817966
15.120180872080446        321.62212420610246
15.776427265201203        323.6067145304083
16.43267365832196         325.5913048547141
17.08892005144272         329.01029926286594
17.74516644456348         332.4292936710177
18.40141283768424         335.8482880791695
19.057659230804997        339.26728248732127
19.713905623925754        341.8636432753135
20.37015201704651         344.4600040633057
21.02639841016727         347.0563648512979
21.682644803288028        349.6527256392901
22.338891196408788        353.8145780418889
22.995137589529545        357.97643044448773
23.651383982650305        362.13828284708654
24.307630375771065        366.30013524968535
24.963876768891822        371.55028579993507
25.62012316201258         376.8004363501848
26.27636955513334         382.05058690043444
26.932615948254096        387.30073745068415
27.588862341374853        392.29526773146836
28.24510873449561         397.2897980122525
28.901355127616366        402.2843282930367
29.557601520737123        407.2788585738209
30.21384791385788         410.6865341340083
30.87009430697864         414.09420969419557
31.526340700099396        417.5018852543829
32.18258709322016         420.9095608145702
32.83883348634092         425.0895379098552
33.49507987946168         429.2695150051403
34.15132627258243         433.4494921004253
34.80757266570319         437.6294691957103
35.463819058823944        441.5329228737197
36.12006545194471         445.43637655172904
36.776311845065464        449.33983022973837
37.432558238186225        453.24328390774775
38.088804631306985        456.5819489605567
38.74505102442774         459.9206140133657
39.401297417548506        463.2592790661747
40.05754381066926         466.5979441189837
40.71379020379002         469.72399756949653
41.37003659691077         472.85005102000946
42.026282990031525        475.9761044705223
42.682529383152286        479.10215792103514
43.33877577627304         481.9227772761848
43.9950221693938          484.74339663133446
44.651268562514566        487.5640159864841
45.30751495563532         490.3846353416337
45.96376134875609         493.98302859313446
46.62000774187684         497.5814218446352
47.27625413499759         501.179815096136
47.93250052811836         504.77820834763673
48.588746921239114        507.50193969734806
49.244993314359874        510.22567104705945
49.90123970748063         512.9494023967708
50.55748610060139         515.6731337464821
51.21373249372215         518.5608160100312
51.869978886842915        521.4484982735804
52.526225279963676        524.3361805371296
53.182471673084436        527.2238628006787
53.838718066205196        529.6559495466172
54.49496445932595         532.0880362925558
55.15121085244671         534.5201230384944
55.80745724556747         536.9522097844329
56.46370363868822         539.4226847388824
57.11995003180898         541.8931596933319
57.776196424929736        544.3636346477813
58.4324428180505          546.8341096022308
59.08868921117126         548.9433653416772
59.74493560429201         551.0526210811238
60.40118199741277         553.1618768205703
61.057428390533524        555.2711325600168
61.71367478365429         557.7554959848206
62.36992117677505         560.2398594096244
63.026167569895804        562.7242228344282
63.682413963016565        565.208586259232
64.33866035613734         567.4536225136058
64.99490674925809         569.6986587679795
65.65115314237885         571.9436950223533
66.30739953549961         574.188731276727
66.96364592862037         576.2122507193085
67.61989232174112         578.2357701618901
68.27613871486187         580.2592896044715
68.93238510798263         582.282809047053
69.5886315011034          586.1617025759484
70.24487789422415         590.0405961048439
70.90112428734491         593.9194896337392
71.55737068046567         597.7983831626347
72.21361707358642         600.3799696595809
72.86986346670719         602.961556156527
73.52610985982797         605.5431426534732
74.18235625294872         608.1247291504194
74.83860264606948         609.6403096084537
75.49484903919024         611.1558900664879
76.15109543231098         612.6714705245221
76.80734182543173         614.1870509825563
77.46358821855249         616.1853402553998
78.11983461167324         618.1836295282433
78.776081004794           620.1819188010867
79.43232739791475         622.1802080739301
80.08857379103553         624.6856905709847
80.7448201841563          627.1911730680392
81.40106657727705         629.6966555650938
82.05731297039783         632.2021380621484
82.71355936351858         634.3347875528657
83.36980575663932         636.4674370435829
84.02605214976008         638.6000865343001
84.68229854288083         640.7327360250174
85.33854493600158         642.3257556308085
85.99479132912235         643.9187752365997
86.65103772224312         645.5117948423908
87.30728411536387         647.104814448182
87.96353050848462         648.5996325111129
88.61977690160538         650.0944505740438
89.27602329472613         651.5892686369747
89.93226968784687         653.0840866999056
90.58851608096762         654.2574577060061
91.24476247408839         655.4308287121067
91.90100886720914         656.6041997182074
92.5572552603299          657.7775707243079
93.21350165345066         658.8909392527809
93.86974804657142         660.0043077812538
94.52599443969217         661.1176763097268
95.18224083281294         662.2310448381998
95.8384872259337          663.7982858287057
96.49473361905446         665.3655268192117
97.15098001217522         666.9327678097178
97.80722640529599         668.5000088002238
98.46347279841675         669.86161392248
99.1197191915375          671.2232190447363
99.77596558465827         672.5848241669926
100.43221197777902        673.9464292892488
101.08845837089977        675.5342722398692
101.74470476402053        677.1221151904897
102.40095115714128        678.7099581411101
103.05719755026203        680.2978010917305
103.7134439433828         681.2587157602596
104.36969033650357        682.2196304287887
105.02593672962433        683.1805450973178
105.6821831227451         684.1414597658469
106.33842951586587        685.0912609297594
106.99467590898662        686.0410620936718
107.65092230210738        686.9908632575844
108.30716869522813        687.9406644214968
108.9634150883489         688.94353094129
109.61966148146965        689.9463974610833
110.2759078745904         690.9492639808765
110.93215426771118        691.9521305006697
111.58840066083192        693.0503030293942
112.24464705395268        694.1484755581185
112.90089344707343        695.2466480868429
113.5571398401942         696.3448206155674
114.21338623331495        697.1550366442441
114.8696326264357         697.9652526729205
115.52587901955647        698.7754687015971
116.18212541267724        699.5856847302737
116.83837180579799        700.6224330440803
117.49461819891877        701.6591813578871
118.15086459203953        702.6959296716938
118.80711098516028        703.7326779855005
119.46335737828103        704.72143714229
120.11960377140181        705.7101962990796
120.77585016452258        706.698955455869
121.43209655764333        707.6877146126586
122.0883429507641         708.4823853876716
122.74458934388484        709.2770561626844
123.40083573700558        710.0717269376973
124.05708213012633        710.8663977127102
124.7133285232471         711.6060461692625
125.36957491636785        712.345694625815
126.02582130948863        713.0853430823674
126.6820677026094         713.8249915389199
127.33831409573015        714.426448643954
127.99456048885088        715.0279057489879
128.65080688197165        715.6293628540219
129.3070532750924         716.2308199590559
129.96329966821315        716.9546781098828
130.61954606133392        717.6785362607097
131.2757924544547         718.4023944115368
131.93203884757546        719.1262525623637
132.58828524069622        719.7706068093656
133.244531633817          720.4149610563677
133.90077802693776        721.0593153033697
134.55702442005853        721.7036695503716
135.21327081317926        722.023961645989
135.86951720630003        722.3442537416062
136.52576359942077        722.6645458372234
137.1820099925415         722.9848379328407
137.83825638566228        723.3633664322974
138.49450277878302        723.7418949317541
139.15074917190378        724.1204234312108
139.80699556502455        724.4989519306675
140.4632419581453         725.0285580836847
141.11948835126609        725.5581642367019
141.77573474438685        726.087770389719
142.4319811375076         726.6173765427362
143.08822753062836        727.0732244945722
143.74447392374913        727.5290724464081
144.40072031686984        727.9849203982441
145.0569667099906         728.44076835008
145.7132131031114         728.9497690108301
146.36945949623214        729.4587696715801
147.0257058893529         729.9677703323301
147.6819522824737         730.4767709930802
148.33819867559444        730.8584153883926
148.99444506871518        731.2400597837049
149.65069146183592        731.6217041790171
150.3069378549567         732.0033485743295
150.96318424807745        732.2880583677435
151.6194306411982         732.5727681611575
152.27567703431896        732.8574779545716
152.93192342743973        733.1421877479855
153.58816982056047        733.6236624172896
154.24441621368123        734.1051370865935
154.90066260680203        734.5866117558975
155.55690899992277        735.0680864252015
156.21315539304354        735.4078349516909
156.8694017861643         735.7475834781803
157.52564817928504        736.0873320046699
158.1818945724058         736.4270805311593
158.83814096552658        736.7183647898256
159.49438735864732        737.009649048492
160.15063375176808        737.3009333071583
160.80688014488882        737.5922175658246
161.4631265380096         737.9388267232177
162.11937293113039        738.2854358806107
162.77561932425112        738.6320450380039
163.4318657173719         738.978654195397
164.08811211049266        739.2048155860273
164.7443585036134         739.4309769766578
165.40060489673417        739.6571383672882
166.05685128985493        739.8832997579186
166.71309768297567        740.1369499253625
167.36934407609644        740.3906000928062
168.02559046921724        740.64425026025
168.68183686233797        740.8979004276938
169.33808325545874        741.1482175020174
169.99432964857948        741.3985345763408
170.65057604170022        741.6488516506644
171.306822434821          741.8991687249879
171.96306882794173        742.0894795952192
172.6193152210625         742.2797904654508
173.27556161418326        742.4701013356821
173.931808007304          742.6604122059135
174.58805440042477        742.8665822510924
175.24430079354553        743.0727522962712
175.90054718666627        743.2789223414501
176.55679357978704        743.4850923866289
177.21303997290784        743.6851767393787
177.8692863660286         743.8852610921283
178.52553275914937        744.0853454448779
179.18177915227017        744.2854297976277
179.83802554539088        744.4799613685834
180.49427193851162        744.6744929395393
181.15051833163236        744.869024510495
181.80676472475307        745.0635560814508
182.46301111787383        745.2245272744417
183.11925751099463        745.3854984674327
183.77550390411537        745.5464696604238
184.43175029723614        745.7074408534147
185.0864616181415         745.9248252253815
185.74117293904686        746.1422095973483
186.39588425995223        746.3595939693149
187.0505955808576         746.5769783412817
187.70530690176295        746.7901926009065
188.3600182226683         747.0034068605312
189.01472954357365        747.2166211201559
189.66944086447901        747.4298353797806
190.322617113169          747.6315938760948
190.97579336185896        747.8333523724091
191.62896961054892        748.0351108687232
192.2821458592389         748.2368693650375
192.9322519634981         748.3865532300384
193.5823580677573         748.5362370950394
194.2324641720165         748.6859209600403
194.8825702762757         748.8356048250413
195.52224899174124        748.9690901613513
196.16192770720676        749.1025754976613
196.80160642267228        749.2360608339714
197.44128513813783        749.3695461702813
198.08096385360335        749.4329035078252
198.7206425690689         749.4962608453693
199.36032128453448        749.5596181829133
200                       749.6229755204573
0                         317.98299763701124
0.6250324047651004        317.9079236040029
1.2500648095302007        317.83284957099465
1.8750972142953009        317.7577755379864
2.5001296190604014        317.6827015049781
3.1493184342775966        317.2546103663731
3.798507249494792         316.826519227768
4.4476960647119865        316.39842808916296
5.096884879929182         315.9703369505579
5.7511454542416205        315.31497000809713
6.40540602855406          314.65960306563636
7.059666602866499         314.0042361231756
7.713927177178938         313.3488691807148
8.368187751491377         313.43652567090425
9.022448325803815         313.5241821610937
9.676708900116253         313.61183865128316
10.330969474428692        313.6994951414726
10.990060630548918        314.3999064757552
11.649151786669144        315.10031781003784
12.308242942789372        315.8007291443205
12.967334098909598        316.5011404786031
13.626552728831468        317.68316932899165
14.285771358753339        318.86519817938023
14.94498998867521         320.0472270297688
15.60420861859708         321.2292558801574
16.263427248518948        323.0299927157444
16.92264587844082         324.83072955133144
17.581864508362692        326.6314663869185
18.24108313828456         328.4322032225055
18.900429242008073        330.5938360006327
19.559775345731584        332.7554687787599
20.219121449455095        334.9171015568871
20.87846755317861         337.07873433501425
21.53781365690212         339.9767121238285
22.197159760625635        342.8746899126428
22.856505864349142        345.772667701457
23.515851968072653        348.6706454902713
24.175198071796167        351.9380700970134
24.834544175519678        355.20549470375545
25.49389027924319         358.47291931049756
26.153236382966703        361.74034391723967
26.812582486690218        364.48892761260885
27.471928590413732        367.237511307978
28.131274694137247        369.9860950033472
28.790620797860765        372.7346786987164
29.449966901584272        375.1982997258272
30.109313005307786        377.66192075293804
30.768659109031297        380.1255417800489
31.428005212754808        382.5891628071597
32.087351316478326        386.14370262380527
32.74669742020183         389.6982424404508
33.40604352392534         393.2527822570963
34.065389627648855        396.8073220737419
34.72473573137237         400.29585017554285
35.38408183509588         403.7843782773439
36.04342793881939         407.27290637914484
36.702774042542906        410.7614344809458
37.36212014626642         415.61573229870083
38.021466249989935        420.47003011645586
38.68081235371344         425.3243279342109
39.34015845743696         430.1786257519659
39.99950456116047         433.2242148311737
40.658850664883985        436.2698039103815
41.3181967686075          439.3153929895892
41.977542872331014        442.360982068797
42.63688897605453         445.8723927738032
43.29623507977804         449.38380347880934
43.95558118350156         452.89521418381554
44.61492728722507         456.40662488882174
45.27427339094858         460.20326553425383
45.93361949467209         463.9999061796859
46.5929655983956          467.79654682511796
47.25231170211911         471.59318747055005
47.91165780584262         475.05756099078565
48.57100390956614         478.5219345110212
49.23035001328965         481.9863080312567
49.889696117013166        485.45068155149227
50.54904222073668         488.3478146060645
51.20838832446019         491.24494766063674
51.867734428183695        494.142080715209
52.52708053190721         497.0392137697812
53.18642663563072         500.16010386752293
53.84577273935423         503.28099396526466
54.505118843077746        506.40188406300643
55.16446494680125         509.52277416074816
55.82381105052477         512.7618878438141
56.48315715424828         516.0010015268799
57.142503257971796        519.2401152099459
57.80184936169531         522.4792288930117
58.461195465418825        525.7269368447716
59.12054156914233         528.9746447965313
59.77988767286584         532.2223527482911
60.439233776589354        535.4700607000509
61.098579880312876        538.6545846431347
61.75792598403639         541.8391085862185
62.41727208775991         545.0236325293022
63.076618191483426        548.208156472386
63.735964295206934        552.1613947357871
64.39531039893045         556.1146329991881
65.05465650265396         560.067871262589
65.71400260637746         564.0211095259901
66.37334871010097         566.5764207454015
67.03269481382448         569.1317319648128
67.69204091754798         571.6870431842242
68.3513870212715          574.2423544036355
69.01073312499501         576.9543151669906
69.67007922871854         579.6662759303456
70.32942533244204         582.3782366937007
70.98877143616555         585.0901974570558
71.64811753988906         587.5390805782358
72.30746364361256         589.9879636994159
72.96680974733609         592.436846820596
73.6261558510596          594.885729941776
74.28550195478311         598.6872841810159
74.94484805850662         602.4888384202558
75.60419416223013         606.2903926594956
76.26354026595365         610.0919468987355
76.92288636967716         612.5314855639647
77.58223247340067         614.9710242291937
78.24157857712417         617.4105628944228
78.90092468084768         619.850101559652
79.56027078457119         623.343683842378
80.21961688829471         626.8372661251042
80.87896299201822         630.3308484078302
81.53830909574172         633.8244306905564
82.19765519946525         636.4723628363284
82.85700130318877         639.1202949821005
83.51634740691227         641.7682271278726
84.1756935106358          644.4161592736447
84.8350396143593          646.4707348341922
85.49438571808282         648.5253103947396
86.15373182180633         650.5798859552871
86.81307792552984         652.6344615158346
87.47242402925336         654.723508132844
88.13177013297688         656.8125547498533
88.7911162367004          658.9016013668627
89.45046234042393         660.9906479838721
90.10980844414743         662.8527142518037
90.76915454787094         664.7147805197353
91.42850065159446         666.576846787667
92.08784675531797         668.4389130555986
92.74719285904148         670.7400908983002
93.40653896276498         673.0412687410017
94.06588506648849         675.3424465837032
94.72523117021201         677.6436244264048
95.38457727393553         679.4543693620396
96.04392337765904         681.2651142976745
96.70326948138258         683.0758592333093
97.36261558510608         684.8866041689441
98.02196168882959         686.7067056871199
98.6813077925531          688.5268072052957
99.3406538962766          690.3469087234714
100.00000000000011        692.1670102416472
100.65934610372362        693.8905626451536
101.31869220744713        695.6141150486603
101.97803831117064        697.3376674521668
102.63738441489414        699.0612198556734
103.29673051861766        700.6020915674508
103.95607662234117        702.1429632792283
104.6154227260647         703.6838349910057
105.2747688297882         705.2247067027831
105.93411493351171        706.5964291349579
106.59346103723522        707.9681515671327
107.25280714095872        709.3398739993074
107.91215324468223        710.7115964314822
108.57149934840574        712.1026681383613
109.23084545212926        713.4937398452403
109.89019155585277        714.8848115521193
110.54953765957629        716.2758832589984
111.2088837632998         717.3034393454067
111.86822986702332        718.3309954318149
112.52757597074684        719.3585515182233
113.18692207447035        720.3861076046315
113.84626817819385        721.8084178609062
114.50561428191737        723.2307281171807
115.1649603856409         724.6530383734553
115.8243064893644         726.0753486297299
116.48365259308792        727.2258122061895
117.14299869681142        728.3762757826491
117.80234480053493        729.5267393591089
118.46169090425845        730.6772029355685
119.12103700798195        731.7673710058567
119.78038311170546        732.8575390761448
120.43972921542897        733.947707146433
121.09907531915246        735.0378752167212
121.75842142287597        735.8952725494544
122.41776752659949        736.7526698821875
123.07711363032301        737.6100672149207
123.73645973404652        738.4674645476539
124.39580583777004        739.5708138797727
125.05515194149355        740.6741632118916
125.71449804521708        741.7775125440105
126.37384414894059        742.8808618761293
127.0331902526641         743.9196242498281
127.6925363563876         744.9583866235268
128.35188246011114        745.9971489972257
129.01122856383466        747.0359113709245
129.67057466755816        747.8103259105758
130.3299207712817         748.5847404502271
130.9892668750052         749.3591549898783
131.64861297872872        750.1335695295296
132.30795908245224        750.9780761988761
132.96730518617574        751.8225828682228
133.62665128989926        752.6670895375694
134.28599739362278        753.511596206916
134.9453434973463         754.2783294448084
135.6046896010698         755.0450626827007
136.26403570479334        755.811795920593
136.92338180851684        756.5785291584854
137.58272791224036        757.3346902423125
138.24207401596382        758.0908513261397
138.90142011968734        758.8470124099669
139.56076622341084        759.603173493794
140.2201123271344         760.3685001307691
140.87945843085788        761.1338267677443
141.5388045345814         761.8991534047195
142.19815063830492        762.6644800416947
142.85749674202845        763.2817880107469
143.51684284575194        763.8990959797993
144.17618894947546        764.5164039488516
144.83553505319895        765.1337119179038
145.49488115692247        765.6335281015372
146.15422726064597        766.1333442851706
146.81357336436952        766.6331604688039
147.472919468093          767.1329766524373
148.13226557181653        767.8367363171641
148.79161167554005        768.5404959818909
149.45095777926358        769.2442556466178
150.11030388298707        769.9480153113446
150.7696499867106         770.6257319416297
151.42899609043408        771.3034485719147
152.0883421941576         771.9811652021997
152.7476882978811         772.6588818324847
153.40703440160462        773.1467901385295
154.0663805053281         773.6346984445742
154.72572660905163        774.1226067506188
155.38507271277513        774.6105150566636
156.04441881649868        775.0941242701681
156.70376492022217        775.5777334836725
157.3631110239457         776.061342697177
158.0224571276692         776.5449519106814
158.68180323139273        777.1078452010762
159.34114933511623        777.670738491471
160.00049543883972        778.2336317818657
160.6598415425632         778.7965250722605
161.3191876462867         779.2801781680377
161.97853375001026        779.7638312638148
162.63787985373375        780.2474843595919
163.29722595745727        780.7311374553691
163.9565720611808         781.1279934487657
164.61591816490434        781.5248494421623
165.27526426862786        781.921705435559
165.93461037235141        782.3185614289557
166.5939564760749         782.6798577874467
167.25330257979843        783.041154145938
167.9126486835219         783.402450504429
168.57199478724544        783.7637468629201
169.23134089096894        784.1332732084397
169.89068699469246        784.5027995539593
170.55003309841598        784.8723258994789
171.2093792021395         785.2418522449985
171.868725305863          785.4640124830239
172.52807140958652        785.6861727210493
173.18741751331           785.9083329590746
173.84676361703353        786.1304931971
174.50610972075702        786.4363872322458
175.16545582448055        786.7422812673916
175.82480192820404        787.0481753025374
176.48414803192756        787.3540693376832
177.14349413565108        787.7727438906902
177.80284023937463        788.1914184436972
178.46218634309815        788.6100929967042
179.1215324468217         789.0287675497112
179.7808785505452         789.2589947491574
180.44022465426872        789.4892219486037
181.0995707579922         789.7194491480499
181.75891686171573        789.949676347496
182.41826296543923        790.2124013121198
183.07760906916275        790.4751262767436
183.73695517288624        790.7378512413675
184.39630127660973        791.0005762059913
185.05564738033326        791.3083021521525
185.71499348405678        791.6160280983138
186.3743395877803         791.923754044475
187.0336856915038         792.2314799906362
187.69116867051028        792.5321410525524
188.34865164951674        792.8328021144687
189.00613462852323        793.1334631763849
189.6636176075297         793.4341242383011
190.32110058653618        793.7054761251715
190.97858356554264        793.9768280120418
191.6360665445491         794.2481798989122
192.29354952355555        794.5195317857825
192.9391076419057         794.7900218291968
193.58466576025586        795.060511872611
194.23022387860598        795.3310019160251
194.8757819969561         795.6014919594394
195.52134011530623        795.7334337080819
196.16689823365635        795.8653754567245
196.8124563520065         795.9973172053669
197.45801447035663        796.1292589540095
198.0935108527675         796.285621976657
198.72900723517833        796.4419849993044
199.36450361758918        796.5983480219519
200                       796.7547110445994
0                         318.1753375290629
0.6352420614244785        318.1466251188763
1.270484122848957         318.1179127086897
1.9057261842734354        318.0892002985031
2.540968245697914         318.0604878883165
3.176210307122392         317.617750759978
3.811452368546871         317.17501363163944
4.446694429971349         316.73227650330097
5.081936491395828         316.28953937496243
5.737810666671651         316.063892420582
6.393684841947474         315.83824546620167
7.049559017223297         315.61259851182126
7.705433192499119         315.38695155744085
8.361307367774943         315.19958613831733
9.017181543050764         315.0122207191938
9.673055718326587         314.82485530007034
10.32892989360241         314.6374898809468
10.988275997325921        314.99628561318997
11.647622101049434        315.35508134543306
12.306968204772947        315.7138770776762
12.96631430849646         316.0726728099193
13.625660412219972        316.6850201920479
14.285006515943484        317.29736757417646
14.944352619666995        317.90971495630504
15.60369872339051         318.5220623384336
16.26304482711402         320.055083255953
16.922390930837533        321.5881041734724
17.581737034561048        323.12112509099177
18.24108313828456         324.6541460085112
18.900429242008073        327.30853930956096
19.559775345731584        329.96293261061066
20.219121449455095        332.61732591166043
20.87846755317861         335.2717192127102
21.53781365690212         337.0268929034962
22.197159760625635        338.7820665942823
22.856505864349142        340.5372402850684
23.515851968072653        342.2924139758544
24.175198071796167        344.43453538872586
24.834544175519678        346.5766568015972
25.49389027924319         348.7187782144686
26.153236382966703        350.86089962734
26.812582486690218        354.0214170194248
27.471928590413732        357.1819344115096
28.131274694137247        360.34245180359443
28.790620797860765        363.5029691956792
29.449966901584272        365.9425574154452
30.109313005307786        368.38214563521126
30.768659109031297        370.8217338549773
31.428005212754808        373.2613220747433
32.087351316478326        375.881799520599
32.74669742020183         378.5022769664546
33.40604352392534         381.12275441231026
34.065389627648855        383.7432318581659
34.72473573137237         387.07739679290205
35.38408183509588         390.4115617276381
36.04342793881939         393.7457266623742
36.702774042542906        397.0798915971103
37.36212014626642         399.71201713346426
38.021466249989935        402.3441426698183
38.68081235371344         404.9762682061723