% Model:              Cav_Hex_Unif_flux_v5.2.1 - Lin. Distn.mph
% Version:            COMSOL 5.5.0.359
% Date:               Dec 7 2021, 15:22
% Dimension:          1
% Nodes:              1570
% Expressions:        1
% Description:        Line graph
% x                       Height
0                         317.9865315783896
0.11307048235820616       317.91630161034243
0.22614096471641232       317.84607164229527
0.3392114470746185        317.7758416742481
0.45228192943282464       317.70561170620095
0.5894591511276771        317.1296348999872
0.7266363728225295        316.5536580937734
0.8638135945173819        315.97768128755956
1.0009908162122343        315.4017044813458
1.1381680379070866        314.62571854106824
1.275345259601939         313.8497326007907
1.4125224812967916        313.0737466605131
1.549699702991644         312.29776072023554
1.7389086673024585        313.31284124703365
1.9281176316132733        314.32792177383175
2.117326595924088         315.34300230062985
2.3065355602349027        316.35808282742795
2.499222302267411         319.8623922623781
2.6919090442999196        323.3667016973282
2.884595786332428         326.87101113227834
3.077282528364937         330.37532056722847
3.269969270397446         333.53339820244423
3.4626560124299552        336.69147583766005
3.6553427544624646        339.84955347287587
3.8480294964949735        343.00763110809163
4.040753179941808         350.07752673025044
4.23347686338864          357.1474223524092
4.4262005468354735        364.217317974568
4.618924230282307         371.28721359672676
4.811647913729141         377.9196956067061
5.004371597175974         384.5521776166855
5.197095280622809         391.18465962666494
5.389818964069642         397.81714163664435
5.582542647516475         404.24243915575346
5.77526633096331          410.6677366748627
5.967990014410143         417.0930341939718
6.160713697856977         423.51833171308095
6.35343738130381          427.6051824685808
6.546161064750644         431.69203322408055
6.738884748197479         435.7788839795803
6.931608431644312         439.8657347350801
7.124332115091145         446.2827005805911
7.31705579853798          452.699666426102
7.509779481984814         459.116632271613
7.702503165431647         465.533598117124
7.89522684887848          469.92894223860003
8.087950532325314         474.32428636007614
8.280674215772148         478.71963048155226
8.47339789921898          483.1149746030283
8.666121582665813         487.00621450084316
8.858845266112649         490.89745439865794
9.051568949559483         494.7886942964727
9.244292633006316         498.6799341942875
9.437016316453148         503.9030242822551
9.62973999989998          509.12611437022264
9.822463683346813         514.3492044581902
10.015187366793645        519.5722945461578
10.207911050240478        524.3120101420327
10.400634733687314        529.0517257379076
10.593358417134148        533.7914413337825
10.78608210058098         538.5311569296574
10.978805784027815        542.9382695544701
11.171529467474649        547.3453821792828
11.364253150921481        551.7524948040955
11.556976834368315        556.1596074289082
11.74970051781515         559.6453907192118
11.942424201261984        563.1311740095155
12.135147884708818        566.6169572998191
12.327871568155654        570.1027405901227
12.520595251602488        573.7688086722228
12.71331893504932         577.434876754323
12.906042618496153        581.1009448364232
13.098766301942987        584.7670129185233
13.291489985389822        588.3971186942588
13.484213668836656        592.0272244699943
13.67693735228349         595.6573302457298
13.869661035730324        599.2874360214653
14.062384719177158        603.0313223669641
14.255108402623993        606.7752087124629
14.447832086070825        610.5190950579617
14.640555769517658        614.2629814034606
14.83327945296449         617.3816585876983
15.026003136411324        620.5003357719361
15.218726819858158        623.619012956174
15.411450503304991        626.7376901404117
15.604174186751827        629.5211988521042
15.796897870198661        632.3047075637969
15.989621553645494        635.0882162754895
16.182345237092328        637.8717249871821
16.37506892053916         640.8216515967247
16.567792603985996        643.7715782062672
16.76051628743283         646.7215048158098
16.95323997087966         649.6714314253524
17.145963654326493        653.0928872649685
17.33868733777333         656.5143431045844
17.531411021220162        659.9357989442005
17.724134704666994        663.3572547838165
17.916858388113827        665.349374543084
18.10958207156066         667.3414943023514
18.302305755007495        669.3336140616188
18.495029438454328        671.3257338208863
18.687753121901164        673.6301875940267
18.880476805347996        675.9346413671672
19.07320048879483         678.2390951403077
19.265924172241665        680.543548913448
19.458647855688497        683.0646259186869
19.65137153913533         685.5857029239259
19.844095222582162        688.1067799291648
20.036818906028998        690.6278569344037
20.22954258947583         692.49549208954
20.422266272922666        694.3631272446764
20.6149899563695          696.2307623998128
20.80771363981633         698.0983975549491
21.000437323263167        700.3708692027008
21.193161006710003        702.6433408504524
21.385884690156836        704.915812498204
21.57860837360367         707.1882841459557
21.771332057050504        708.6159767077811
21.96405574049734         710.0436692696064
22.156779423944176        711.4713618314318
22.34950310739101         712.8990543932571
22.542226790837837        714.8316402214718
22.734950474284666        716.7642260496865
22.927674157731495        718.6968118779012
23.120397841178328        720.6293977061159
23.313121524625164        722.2514829256543
23.505845208071996        723.8735681451926
23.698568891518832        725.4956533647311
23.891292574965668        727.1177385842694
24.0840162584125          728.7692625490491
24.276739941859333        730.4207865138288
24.46946362530617         732.0723104786085
24.662187308753           733.7238344433882
24.854910992199834        735.2187492590842
25.047634675646666        736.7136640747801
25.2403583590935          738.2085788904761
25.43308204254033         739.7034937061721
25.625805725987167        741.3608841593672
25.818529409434003        743.0182746125622
26.01125309288084         744.6756650657572
26.203976776327675        746.3330555189523
26.39670045977451         747.8537308652412
26.589424143221343        749.3744062115302
26.782147826668176        750.8950815578191
26.974871510115012        752.4157569041081
27.16759519356184         753.7804086171847
27.360318877008677        755.1450603302612
27.55304256045551         756.5097120433377
27.745766243902338        757.8743637564143
27.938489927349174        759.0825008290467
28.131213610796006        760.2906379016792
28.32393729424284         761.4987749743118
28.516660977689675        762.7069120469444
28.709384661136507        763.7206829550714
28.90210834458334         764.7344538631983
29.094832028030172        765.7482247713253
29.287555711477005        766.7619956794523
29.48027939492384         767.6402518319078
29.673003078370673        768.5185079843634
29.865726761817513        769.396764136819
30.058450445264345        770.2750202892745
30.25117412871118         771.3011789226329
30.443897812158013        772.3273375559911
30.636621495604846        773.3534961893495
30.829345179051675        774.3796548227077
31.02206886249851         775.3279646394033
31.214792545945343        776.2762744560989
31.407516229392176        777.2245842727946
31.600239912839008        778.1728940894902
31.79296359628584         779.1240179705636
31.985687279732673        780.075141851637
32.17841096317951         781.0262657327103
32.37113464662634         781.9773896137837
32.56385833007318         782.586053977745
32.75658201352001         783.1947183417064
32.949305696966846        783.8033827056678
33.142029380413675        784.4120470696291
33.33475306386051         785.2564487216159
33.52747674730735         786.1008503736027
33.72020043075419         786.9452520255894
33.91292411420102         787.7896536775762
34.105647797647855        788.7406699013994
34.298371481094684        789.6916861252225
34.49109516454153         790.6427023490457
34.683818847988356        791.5937185728689
34.87654253143519         792.225991920406
35.06926621488201         792.8582652679434
35.26198989832885         793.4905386154805
35.454713581775685        794.1228119630179
35.647437265222514        794.8335450586917
35.84016094866935         795.5442781543654
36.032884632116186        796.2550112500392
36.22560831556302         796.9657443457129
36.41833199900986         797.520946852287
36.611055682456694        798.0761493588609
36.80377936590352         798.631351865435
36.99650304935036         799.186554372009
37.18922673279719         799.8922595890109
37.381950416244024        800.5979648060128
37.57467409969085         801.3036700230147
37.76739778313769         802.0093752400165
37.96012146658452         802.6680236747743
38.152845150031354        803.3266721095322
38.34556883347818         803.9853205442901
38.53829251692502         804.6439689790479
38.731016200371855        805.2711693431221
38.92373988381869         805.8983697071961
39.116463567265534        806.5255700712703
39.30918725071236         807.1527704353443
39.5019109341592          807.4994358053893
39.694634617606035        807.8461011754343
39.88735830105288         808.1927665454792
40.08008198449971         808.5394319155242
40.27280566794654         808.9578235772252
40.46552935139337         809.3762152389263
40.65825303484021         809.7946069006273
40.850976718287036        810.2129985623284
41.04370040173388         810.6358499378422
41.236424085180715        811.0587013133559
41.42914776862755         811.4815526888697
41.62187145207439         811.9044040643834
41.81459513552122         812.203329443603
42.007318818968045        812.5022548228226
42.200042502414874        812.8011802020422
42.3927661858617          813.1001055812619
42.58548986930853         813.6484127108608
42.77821355275537         814.1967198404599
42.970937236202204        814.7450269700589
43.16366091964903         815.2933340996578
43.35638460309587         815.8347637295785
43.5491082865427          816.3761933594993
43.741831969989526        816.9176229894201
43.93455565343637         817.4590526193408
44.1272793368832          817.843577632045
44.32000302033004         818.228102644749
44.51272670377687         818.6126276574531
44.705450387223706        818.9971526701572
44.89817407067054         819.3823484653864
45.090897754117385        819.7675442606155
45.283621437564214        820.1527400558448
45.47634512101106         820.5379358510739
45.669068804457886        820.832877594609
45.86179248790473         821.1278193381443
46.05451617135156         821.4227610816795
46.247239854798394        821.7177028252146
46.43996353824523         822.0343835576273
46.63268722169206         822.3510642900399
46.82541090513889         822.6677450224526
47.01813458858572         822.9844257548652
47.21081480320881         823.2854587514613
47.403495017831915        823.5864917480574
47.59617523245501         823.8875247446535
47.788855447078106        824.1885577412496
47.97414686196107         824.5437784495341
48.15943827684402         824.8989991578185
48.34472969172698         825.254219866103
48.53002110660994         825.6094405743875
48.7153125214929          825.8702365273879
48.90060393637585         826.1310324803883
49.08589535125882         826.3918284333887
49.271186766141774        826.6526243863891
49.45339007460633         826.746940624163
49.63559338307088         826.8412568619369
49.81779669153545         826.9355730997108
50                        827.0298893374847
0                         317.8356029398999
0.18256079141593237       317.47163891328
0.36512158283186474       317.1076748866601
0.5476823742477971        316.7437108600402
0.7302431656637295        316.3797468334203
0.9128039570796617        315.5151576861863
1.0953647484955937        314.65056853895226
1.2779255399115261        313.7859793917182
1.4604863313274583        312.92139024448414
1.6489779078913018        313.2529973880307
1.8374694844551454        313.58460453157727
2.025961061018989         313.9162116751238
2.2144526375828324        314.2478188186704
2.4029442141466757        318.47008031749004
2.591435790710519         322.69234181630964
2.7799273672743627        326.9146033151293
2.968418943838206         331.1368648139489
3.161578387167666         335.36952727670575
3.354737830497126         339.6021897394626
3.5478972738265853        343.83485220221945
3.7410567171560456        348.06751466497633
3.934494680879119         351.2900044555767
4.127932644602192         354.5124942461771
4.321370608325265         357.7349840367775
4.514808572048338         360.9574738273779
4.708246535771411         366.27019057557
4.9016844994944835        371.5829073237621
5.095122463217556         376.89562407195416
5.288560426940629         382.20834082014625
5.482103983470508         386.4202804946306
5.675647540000388         390.632220169115
5.869191096530267         394.84415984359936
6.062734653060147         399.0560995180837
6.255972054559533         406.2601745943691
6.449209456058919         413.46424967065457
6.642446857558306         420.66832474694
6.835684259057691         427.8723998232254
7.028921660557077         432.90871031107963
7.2221590620564635        437.94502079893385
7.415396463555849         442.9813312867881
7.608633865055236         448.0176417746423
7.801871266554622         452.841612871479
7.995108668054009         457.6655839683157
8.188346069553393         462.48955506515233
8.38158347105278          467.31352616198905
8.574820872552166         471.74770057499416
8.768058274051551         476.1818749879993
8.961295675550938         480.6160494010045
9.154533077050324         485.0502238140096
9.34777047854971          491.54468617211205
9.541007880049097         498.0391485302145
9.734245281548484         504.53361088831696
9.92748268304787          511.0280732464194
10.120720084547258        515.5439160321777
10.313957486046645        520.0597588179359
10.507194887546031        524.575601603694
10.700432289045418        529.0914443894522
10.893669690544803        532.8158768973598
11.086907092044187        536.5403094052672
11.280144493543572        540.2647419131747
11.473381895042959        543.9891744210822
11.666619296542345        548.6453607372896
11.859856698041732        553.301547053497
12.053094099541118        557.9577333697044
12.246331501040505        562.6139196859118
12.439568902539891        567.43909818317
12.63280630403928         572.2642766804282
12.826043705538666        577.0894551776864
13.019281107038053        581.9146336749446
13.212518508537439        586.6828030601657
13.405755910036826        591.4509724453867
13.598993311536214        596.2191418306077
13.7922307130356          600.9873112158288
13.985468114534987        606.0204092398126
14.178705516034372        611.0535072637965
14.371942917533755        616.0866052877803
14.565180319033141        621.1197033117642
14.758417720532528        624.3752826724233
14.951655122031916        627.6308620330824
15.144892523531302        630.8864413937414
15.33812992503069         634.1420207544005
15.531367326530075        637.0539383103587
15.72460472802946         639.9658558663168
15.917842129528847        642.877773422275
16.11107953102823         645.7896909782332
16.304316932527616        648.4866259144335
16.497554334027004        651.1835608506339
16.690791735526393        653.8804957868342
16.884029137025777        656.5774307230345
17.077266538525166        659.8083988190546
17.270503940024554        663.0393669150747
17.463741341523942        666.2703350110949
17.65697874302333         669.501303107115
17.850216144522715        672.589631190645
18.0434535460221          675.677959274175
18.236690947521485        678.7662873577051
18.42992834902087         681.8546154412351
18.623165750520254        684.324198878583
18.816403152019642        686.7937823159311
19.009640553519027        689.2633657532792
19.202877955018412        691.7329491906273
19.3961153565178          693.9790118580324
19.589352758017185        696.2250745254377
19.78259015951657         698.4711371928429
19.975827561015958        700.717199860248
20.169064962515346        703.3566141716161
20.362302364014734        705.9960284829842
20.55553976551412         708.6354427943523
20.748777167013507        711.2748571057205
20.942014568512892        713.418898331939
21.13525197001228         715.5629395581575
21.32848937151167         717.7069807843759
21.521726773011054        719.8510220105944
21.714964174510442        721.4861541044389
21.908201576009827        723.1212861982835
22.101438977509215        724.756418292128
22.294676379008603        726.3915503859727
22.487913780507988        728.3118676428475
22.681151182007373        730.2321848997221
22.874388583506757        732.1525021565969
23.067625985006142        734.0728194134717
23.26086338650553         736.3334540254698
23.454100788004915        738.5940886374678
23.6473381895043          740.8547232494658
23.840575591003688        743.1153578614638
24.033812992503073        745.0408506471628
24.22705039400246         746.9663434328618
24.420287795501846        748.8918362185607
24.61352519700123         750.8173290042597
24.80676259850062         752.2207715188016
25.000000000000004        753.6242140333435
25.193237401499392        755.0276565478854
25.386474802998777        756.4310990624273
25.57971220449816         758.0632773173152
25.772949605997546        759.695455572203
25.966187007496927        761.3276338270907
26.159424408996312        762.9598120819786
26.3526618104957          764.5691436511881
26.54589921199509         766.1784752203978
26.739136613494477        767.7878067896074
26.932374014993865        769.3971383588171
27.12561141649325         770.7787692844756
27.318848817992638        772.1604002101341
27.512086219492023        773.5420311357925
27.705323620991408        774.9236620614511
27.898561022490796        776.1949870919171
28.09179842399018         777.4663121223832
28.285035825489565        778.7376371528493
28.478273226988954        780.0089621833154
28.671510628488342        781.1283723046095
28.864748029987727        782.2477824259034
29.05798543148711         783.3671925471974
29.2512228329865          784.4866026684915
29.444460234485884        785.3770094709928
29.63769763598527         786.267416273494
29.830935037484657        787.1578230759951
30.024172438984042        788.0482298784964
30.21740984048343         789.1416435230271
30.41064724198282         790.2350571675578
30.603884643482207        791.3284708120884
30.797122044981595        792.4218844566192
30.99035944648098         793.6554536441676
31.18359684798037         794.889022831716
31.37683424947975         796.1225920192644
31.570071650979138        797.3561612068129
31.763309052478526        798.749217719214
31.956546453977914        800.1422742316151
32.149783855477295        801.5353307440164
32.343021256976684        802.9283872564175
32.536258658476065        803.8975077763998
32.72949605997545         804.8666282963823
32.92273346147484         805.8357488163646
33.11597086297422         806.8048693363469
33.30920826447361         807.7788699963
33.50244566597299         808.7528706562533
33.69568306747237         809.7268713162066
33.88892046897176         810.7008719761598
34.08215787047115         811.5987694659449
34.275395271970545        812.49666695573
34.46863267346993         813.3945644455152
34.66187007496932         814.2924619353004
34.85510747646871         814.9448199526975
35.0483448779681          815.5971779700944
35.24158227946748         816.2495359874915
35.43481968096687         816.9018940048885
35.62805708246625         817.5832580342467
35.82129448396564         818.264622063605
36.014531885465026        818.9459860929632
36.20776928696441         819.6273501223213
36.401006688463795        820.2515657604803
36.594244089963176        820.8757813986392
36.78748149146256         821.499997036798
36.980718892961946        822.124212674957
37.173956294461334        822.979380022846
37.36719369596073         823.834547370735
37.56043109746012         824.689714718624
37.753668498959506        825.5448820665131
37.94690590045889         826.068719312152
38.14014330195827         826.5925565577909
38.33338070345766         827.1163938034299
38.52661810495704         827.6402310490688
38.719855506456426        828.2277819277118
38.91309290795581         828.815332806355
39.106330309455196        829.402883684998
39.299567710954584        829.9904345636411
39.49280511245397         830.4517162596644
39.68604251395335         830.9129979556877
39.87927991545274         831.374279651711
40.07251731695212         831.8355613477344
40.265754718451504        832.4767462055918
40.45899211995089         833.1179310634491
40.65222952145028         833.7591159213065
40.84546692294966         834.4003007791639
41.03870432444906         834.8883911655943
41.231941725948445        835.3764815520246
41.425179127447834        835.864571938455
41.61841652894722         836.3526623248854
41.81165393044661         836.8030095095412
42.004891331946           837.2533566941971
42.19812873344539         837.703703878853
42.39136613494477         838.1540510635089
42.58460353644415         838.6587807274844
42.77784093794353         839.16351039146
42.97107833944291         839.6682400554355
43.16431574094229         840.1729697194111
43.35755314244168         840.650096190292
43.55079054394106         841.1272226611727
43.74402794544044         841.6043491320536
43.93726534693983         842.0814756029345
44.13050274843922         842.4063814395793
44.32374014993861         842.7312872762241
44.516977551437996        843.0561931128688
44.710214952937385        843.3810989495136
44.90345235443677         843.7188807848603
45.09668975593616         844.056662620207
45.28992715743555         844.3944444555538
45.48316455893494         844.7322262909005
45.67640196043432         845.1715174741338
45.86963936193371         845.6108086573672
46.0628767634331          846.0500998406005
46.256114164932484        846.489391023834
46.44935156643187         846.8643438154165
46.64258896793125         847.239296606999
46.835826369430634        847.6142493985815
47.02906377093002         847.989202190164
47.22229694262027         848.3425904562254
47.41553011431051         848.6959787222869
47.60876328600077         849.0493669883483
47.80199645769102         849.4027552544098
47.98743485809022         849.7220814141057
48.17287325848942         850.0414075738015
48.35831165888861         850.3607337334975
48.54375005928782         850.6800598931933
48.725781301876836        850.8743678389376
48.90781254446586         851.0686757846819
49.08984378705489         851.2629837304262
49.271875029643915        851.4572916761705
49.453906272232935        851.7035504931634
49.635937514821954        851.9498093101563
49.81796875741099         852.1960681271491
50                        852.4423269441421
0                         317.87413296533236
0.1833023320968654        317.54742240792183
0.3666046641937308        317.2207118505113
0.5499069962905961        316.8940012931007
0.7332093283874616        316.56729073569016
0.9165116604843269        315.3567695252687
1.0998139925811925        314.14624831484724
1.283116324678058         312.9357271044258
1.4664186567749233        311.7252058940043
1.6550408769877154        312.76552293998225
1.843663097200508         313.80583998596023
2.0322853174133004        314.8461570319382
2.220907537626093         315.8864740779162
2.409529757838885         318.35262242817765
2.598151978051678         320.8187707784391
2.78677419826447          323.28491912870055
2.9753964184772626        325.751067478962
3.168067437298136         329.7003500632822
3.3607384561190092        333.6496326476024
3.553409474939882         337.59891523192255
3.746080493760756         341.54819781624275
3.938891156069789         345.0200552700576
4.131701818378823         348.4919127238724
4.324512480687856         351.96377017768725
4.517323142996889         355.4356276315021
4.710484341069426         360.47017451503143
4.903645539141964         365.5047213985607
5.096806737214501         370.53926828209006
5.289967935287039         375.5738151656194
5.483129133359575         380.585059069862
5.676290331432113         385.59630297410456
5.869451529504649         390.6075468783471
6.062612727577187         395.61879078258966
6.255865369761942         401.29524934417543
6.449118011946699         406.97170790576115
6.642370654131455         412.6481664673469
6.835623296316211         418.3246250289327
7.028875938500968         425.36080268378106
7.222128580685723         432.39698033862936
7.415381222870479         439.4331579934777
7.608633865055236         446.469335648326
7.801871266554622         451.54411662575933
7.995108668054009         456.61889760319264
8.188346069553393         461.693678580626
8.38158347105278          466.7684595580593
8.574820872552166         470.77039452316967
8.768058274051551         474.77232948828
8.961295675550938         478.7742644533903
9.154533077050324         482.7761994185006
9.34777047854971          487.7526315606985
9.541007880049097         492.72906370289644
9.734245281548484         497.70549584509433
9.92748268304787          502.6819279872923
10.120720084547258        507.55441562966007
10.313957486046645        512.4269032720279
10.507194887546031        517.2993909143958
10.700432289045418        522.1718785567635
10.893669690544803        526.7223368492
11.086907092044187        531.2727951416365
11.280144493543572        535.823253434073
11.473381895042959        540.3737117265094
11.666619296542345        544.0825825931424
11.859856698041732        547.7914534597755
12.053094099541118        551.5003243264086
12.246331501040505        555.2091951930418
12.439568902539891        558.7444862679522
12.63280630403928         562.2797773428626
12.826043705538666        565.8150684177732
13.019281107038053        569.3503594926837
13.212518508537439        573.742530036887
13.405755910036826        578.1347005810906
13.598993311536214        582.5268711252941
13.7922307130356          586.9190416694976
13.985468114534987        591.1155101367601
14.178705516034372        595.3119786040227
14.371942917533755        599.5084470712851
14.565180319033141        603.7049155385477
14.758417720532528        607.1759707116148
14.951655122031916        610.6470258846819
15.144892523531302        614.1180810577489
15.33812992503069         617.589136230816
15.531367326530075        620.6958593002369
15.72460472802946         623.8025823696578
15.917842129528847        626.9093054390787
16.11107953102823         630.0160285084995
16.304316932527616        633.6945491394113
16.497554334027004        637.3730697703231
16.690791735526393        641.0515904012349
16.884029137025777        644.7301110321466
17.077266538525166        647.2689719810818
17.270503940024554        649.807832930017
17.463741341523942        652.346693878952
17.65697874302333         654.8855548278872
17.850216144522715        657.5262618596183
18.0434535460221          660.1669688913495
18.236690947521485        662.8076759230806
18.42992834902087         665.4483829548118
18.623165750520254        667.7335128479239
18.816403152019642        670.0186427410358
19.009640553519027        672.3037726341479
19.202877955018412        674.5889025272598
19.3961153565178          677.4357190851348
19.589352758017185        680.2825356430099
19.78259015951657         683.1293522008848
19.975827561015958        685.9761687587597
20.169064962515346        688.1227871398775
20.362302364014734        690.2694055209952
20.55553976551412         692.4160239021129
20.748777167013507        694.5626422832306
20.942014568512892        696.775477257261
21.13525197001228         698.9883122312912
21.32848937151167         701.2011472053214
21.521726773011054        703.4139821793517
21.714964174510442        705.988662725499
21.908201576009827        708.5633432716461
22.101438977509215        711.1380238177934
22.294676379008603        713.7127043639406
22.487913780507988        716.2261374753957
22.681151182007373        718.739570586851
22.874388583506757        721.2530036983062
23.067625985006142        723.7664368097613
23.26086338650553         725.8750196772576
23.454100788004915        727.9836025447539
23.6473381895043          730.0921854122502
23.840575591003688        732.2007682797464
24.033812992503073        734.2247474945906
24.22705039400246         736.2487267094349
24.420287795501846        738.2727059242791
24.61352519700123         740.2966851391234
24.80676259850062         742.3045979933936
25.000000000000004        744.3125108476638
25.193237401499392        746.320423701934
25.386474802998777        748.3283365562042
25.57971220449816         749.4788490339122
25.772949605997546        750.6293615116201
25.966187007496927        751.7798739893279
26.159424408996312        752.9303864670359
26.3526618104957          754.4814352973937
26.54589921199509         756.0324841277514
26.739136613494477        757.5835329581092
26.932374014993865        759.134581788467
27.12561141649325         760.912705976919
27.318848817992638        762.690830165371
27.512086219492023        764.468954353823
27.705323620991408        766.2470785422751
27.898561022490796        767.6879335999063
28.09179842399018         769.1287886575376
28.285035825489565        770.5696437151689
28.478273226988954        772.0104987728001