% Model:              Cav_Hex_Unif_flux_v5.2.1 - Lin. Distn.mph
% Version:            COMSOL 5.5.0.359
% Date:               Dec 7 2021, 15:23
% Dimension:          1
% Nodes:              1882
% Expressions:        1
% Description:        Line graph
% x                       Height
0                         317.9922205110432
0.9683071312942246        317.988882895822
1.9366142625884493        317.9855452806007
2.904921393882674         317.9822076653795
3.8732285251768985        317.97887005015826
4.89880161205972          317.9560358938871
5.924374698942542         317.9332017376159
6.949947785825365         317.9103675813447
7.975520872708187         317.8875334250735
9.029726937385309         317.5731685559107
10.08393300206243         317.2588036867479
11.13813906673955         316.9444388175851
12.192345131416673        316.63007394842225
13.415617768382566        316.4555876787067
14.638890405348459        316.28110140899116
15.862163042314352        316.1066151392756
17.085435679280245        315.9321288695601
18.30870831624614         316.0669440695906
19.53198095321203         316.2017592696211
20.755253590177922        316.3365744696516
21.978526227143817        316.47138966968214
23.25570497701275         316.78031752559815
24.532883726881682        317.08924538151416
25.810062476750616        317.3981732374301
27.087241226619547        317.7071010933461
28.36441997648848         318.7527834959841
29.64159872635741         319.7984658986221
30.918777476226346        320.84414830126013
32.19595622609528         321.8898307038981
33.47388093076004         323.43903791703536
34.75180563542479         324.9882451301726
36.029730340089536        326.53745234330984
37.30765504475429         328.0866595564471
38.58557974941905         329.3417532999064
39.8635044540838          330.59684704336564
41.14142915874855         331.85194078682497
42.419353863413306        333.10703453028424
43.697491698019725        335.4294480981224
44.975629532626144        337.7518616659606
46.25376736723256         340.07427523379874
47.53190520183898         342.3966888016369
48.81025616638706         344.8292361109553
50.08860713093514         347.2617834202737
51.36695809548321         349.6943307295921
52.645309060031295        352.1268780389105
53.92366002457938         353.5294202613975
55.20201098912747         354.9319624838845
56.48036195367555         356.33450470637143
57.75871291822364         357.73704692885843
59.03706388277172         359.0155093797646
60.3154148473198          360.2939718306707
61.59376581186789         361.5724342815769
62.872116776415965        362.850896732483
64.15046774096405         364.55077346877147
65.42881870551211         366.25065020505997
66.70716967006021         367.9505269413484
67.98552063460829         369.65040367763686
69.26387159915637         371.4344624190594
70.54222256370446         373.2185211604819
71.82057352825254         375.00257990190437
73.09892449280062         376.7866386433269
74.3772754573487          379.67889590557036
75.65562642189678         382.5711531678138
76.93397738644487         385.4634104300573
78.21232835099295         388.35566769230076
79.49067931554103         391.02925503051233
80.76903028008911         393.7028423687239
82.0473812446372          396.3764297069355
83.32573220918526         399.05001704514706
84.60408317373336         402.70649547522
85.88243413828144         406.3629739052929
87.16078510282951         410.0194523353658
88.4391360673776          413.67593076543875
89.71748703192569         416.5464338162714
90.99583799647377         419.41693686710414
92.27418896102185         422.2874399179368
93.55253992556993         425.1579429687695
94.83089089011801         427.749134860621
96.1092418546661          430.3403267524725
97.38759281921418         432.93151864432406
98.66594378376226         435.52271053617557
99.94429474831034         438.18493958158024
101.22264571285844        440.84716862698485
102.50099667740652        443.50939767238947
103.77934764195462        446.1716267177941
105.05769860650268        448.0569096491225
106.33604957105078        449.94219258045075
107.61440053559886        451.82747551177914
108.89275150014693        453.7127584431075
110.17110246469501        456.1660216354953
111.44945342924309        458.6192848278831
112.72780439379116        461.072548020271
114.00615535833923        463.5258112126588
115.28450632288731        466.24228743709546
116.5628572874354         468.9587636615322
117.84120825198349        471.6752398859689
119.11955921653157        474.3917161104056
120.39791018107965        476.6311020753455
121.67626114562772        478.8704880402854
122.9546121101758         481.10987400522527
124.23296307472388        483.3492599701652
125.51131403927197        485.75148763907873
126.78966500382005        488.1537153079923
128.06801596836812        490.55594297690584
129.3463669329162         492.9581706458194
130.62471789746428        495.5858661339906
131.90306886201236        498.2135616221617
133.18141982656044        500.8412571103329
134.45977079110855        503.4689525985041
135.73812175565664        505.3045890696349
137.0164727202047         507.14022554076575
138.29482368475277        508.9758620118966
139.57317464930085        510.81149848302744
140.85152561384893        512.410054942634
142.12987657839705        514.0086114022406
143.40822754294513        515.6071678618472
144.68657850749324        517.2057243214538
145.9649294720413         518.7428991264528
147.24328043658934        520.280073931452
148.52163140113745        521.8172487364511
149.7999823656855         523.3544235414502
151.0783333302336         524.6130473991936
152.35668429478167        525.8716712569371
153.63503525932973        527.1302951146805
154.9133862238778         528.388918972424
156.1917371884259         530.0549756061438
157.47008815297397        531.7210322398637
158.74843911752205        533.3870888735835
160.02679008207016        535.0531455073033
161.30514104661825        537.1325124549642
162.58349201116633        539.2118794026252
163.86184297571438        541.2912463502862
165.14019394026246        543.3706132979471
166.41854490481057        544.6613940216916
167.69689586935866        545.9521747454362
168.97524683390677        547.2429554691809
170.25359779845488        548.5337361929254
171.53194876300293        550.5528428910027
172.810299727551          552.57194958908
174.0886506920991         554.5910562871572
175.36700165664715        556.6101629852345
176.64535262119526        557.9383148258607
177.92370358574337        559.2664666664868
179.20205455029148        560.5946185071131
180.48040551483956        561.9227703477393
181.75875647938767        563.0979694943569
183.03710744393572        564.2731686409745
184.3154584084838         565.4483677875921
185.5938093730319         566.6235669342097
186.87216033757997        568.5265515468334
188.15051130212802        570.429536159457
189.4288622666761         572.3325207720808
190.7072132312242         574.2355053847044
191.98556419577227        575.3442057049992
193.26391516032032        576.4529060252942
194.54226612486838        577.5616063455891
195.82061708941646        578.670306665884
197.09896805396454        579.7353131799418
198.37731901851262        580.8003196939997
199.65566998306076        581.8653262080575
200.93402094760884        582.9303327221153
202.21237191215693        584.4314334131127
203.490722876705          585.9325341041101
204.7690738412531         587.4336347951075
206.04742480580117        588.934735486105
207.32577577034928        590.4322562122986
208.60412673489733        591.9297769384923
209.88247769944542        593.427297664686
211.1608286639935         594.9248183908796
212.43917962854158        596.2657142145131
213.7175305930897         597.6066100381465
214.99588155763777        598.9475058617801
216.27423252218586        600.2884016854135
217.55258348673397        601.3834898122551
218.83093445128202        602.4785779390968
220.10928541583007        603.5736660659384
221.38763638037818        604.6687541927799
222.66598734492626        605.6648017833398
223.94433830947435        606.6608493738997
225.22268927402243        607.6568969644596
226.5010402385705         608.6529445550195
227.77939120311856        609.4968694181232
229.05774216766667        610.340794281227
230.33609313221476        611.1847191443308
231.6144440967628         612.0286440074344
232.89279506131092        612.785732509795
234.17114602585897        613.5428210121556
235.44949699040706        614.2999095145161
236.72784795495517        615.0569980168767
238.00619891950325        615.6242671816119
239.28454988405136        616.191536346347
240.56290084859944        616.7588055110821
241.84125181314752        617.3260746758172
243.11960277769563        617.9556017378319
244.39795374224371        618.5851287998466
245.67630470679177        619.2146558618614
246.95465567133988        619.8441829238761
248.23300663588793        620.4146684182107
249.511357600436          620.9851539125452
250.78970856498407        621.5556394068799
252.06805952953215        622.1261249012144
253.34641049408023        622.4004667341014
254.62476145862834        622.6748085669883
255.90311242317637        622.9491503998753
257.1814633877245         623.2234922327623
258.4598143522725         623.666905538126
259.7381653168206         624.1103188434898
261.0165162813687         624.5537321488537
262.29486724591675        624.9971454542174
263.57321821046486        625.583244130044
264.85156917501297        626.1693428058708
266.129920139561          626.7554414816975
267.4082711041091         627.3415401575242
268.6866220686572         627.9875961618258
269.96497303320524        628.6336521661274
271.2433239977533         629.2797081704291
272.5216749623014         629.9257641747307
273.8000259268495         630.4033807203516
275.07837689139757        630.8809972659724
276.35672785594573        631.3586138115933
277.63507882049385        631.8362303572142
278.91342978504184        632.1806152305412
280.19178074958995        632.5250001038683
281.470131714138          632.8693849771953
282.748482678686          633.2137698505223
284.0268336432341         633.8645770875626
285.3051846077822         634.5153843246028
286.5835355723303         635.166191561643
287.86188653687833        635.8169987986832
289.14023750142644        636.1439529985372
290.41858846597444        636.4709071983912
291.6969394305225         636.797861398245
292.9752903950706         637.124815598099
294.25364135961865        637.5968939125153
295.5319923241668         638.0689722269315
296.81034328871493        638.5410505413477
298.088694253263          639.0131288557639
299.3670452178111         639.2966866486391
300.64539618235915        639.5802444415144
301.92374714690715        639.8638022343896
303.20209811145526        640.1473600272649
304.48044907600337        640.5416841555216
305.7588000405514         640.9360082837784
307.03715100509953        641.3303324120351
308.3155019696477         641.7246565402918
309.59385293419575        641.9780276279396
310.8722038987438         642.2313987155874
312.1505548632919         642.484769803235
313.42890582783997        642.7381408908828
314.707256792388          643.0208846778083
315.9856077569361         643.3036284647337
317.2639587214842         643.5863722516592
318.54230968603224        643.8691160385847
319.82066065058035        644.1264252921495
321.09901161512846        644.3837345457143
322.3773625796765         644.6410437992791
323.6557135442246         644.898353052844
324.93406450877274        645.1153550405725
326.21241547332073        645.332357028301
327.4907664378688         645.5493590160294
328.7691174024169         645.7663610037579
330.04746836696495        646.102914353943
331.32581933151306        646.4394677041281
332.60417029606117        646.7760210543132
333.8825212606093         647.1125744044983
335.16087222515733        647.3407289327165
336.43922318970544        647.5688834609347
337.71757415425344        647.7970379891528
338.9959251188015         648.025192517371
340.2742760833496         648.2665546348337
341.55262704789766        648.5079167522964
342.8309780124458         648.7492788697591
344.10932897699394        648.9906409872218
345.387679941542          649.2223421217263
346.66603090609004        649.454043256231
347.94438187063815        649.6857443907356
349.2227328351862         649.9174455252402
350.5010837997344         650.138951993215
351.77943476428254        650.3604584611896
353.0577857288306         650.5819649291644
354.33613669337876        650.8034713971392
355.6144876579268         650.9990115819448
356.89283862247476        651.1945517667505
358.17118958702287        651.3900919515561
359.44954055157086        651.5856321363617
360.72665754377266        651.7757504403967
362.00377453597446        651.9658687444316
363.2808915281762         652.1559870484665
364.55800852037794        652.3461053525015
365.83697647109926        652.5096736576243
367.1159444218205         652.6732419627469
368.39491237254174        652.8368102678697
369.67388032326306        653.0003785729925
370.9528482739843         653.1075984400306
372.23181622470554        653.2148183070688
373.51078417542675        653.3220381741068
374.789752126148          653.4292580411449
376.0622312471309         653.5764766016689
377.33471036811386        653.723695162193
378.60718948909675        653.8709137227171
379.87966861007965        654.0181322832411
381.15214773106254        654.1799472734306
382.4246268520455         654.34176226362
383.69710597302833        654.5035772538095
384.9695850940112         654.6653922439989
386.23125648204353        654.7560515384861
387.49292787007585        654.8467108329733
388.75459925810816        654.9373701274604
390.01627064614047        655.0280294219476
391.2675023691793         655.1667552038875
392.5187340922181         655.3054809858276
393.7699658152569         655.4442067677676
395.0211975382957         655.5829325497075
396.2658981537218         655.6454984871086
397.51059876914786        655.7080644245098
398.755299384574          655.7706303619108
400                       655.8331962993119
0                         317.99629592373606
1.2614415310547167        317.965039126164
2.5228830621094334        317.933782328592
3.78432459316415          317.90252553102
5.045766124218867         317.87126873344795
6.307207655273584         317.65117456522074
7.568649186328302         317.4310803969936
8.830090717383017         317.2109862287664
10.091532248437735        316.9908920605392
11.367517654407678        316.66799287735864
12.64350306037762         316.34509369417805
13.919488466347563        316.02219451099745
15.195473872317503        315.6992953278169
16.47145927828745         315.61437414827395
17.747444684257392        315.529452968731
19.023430090227333        315.444531789188
20.29941549619728         315.359610609645
21.58299109979587         315.6119868062434
22.86656670339446         315.86436300284186
24.15014230699305         316.11673919944025
25.433717910591646        316.36911539603864
26.717293514190235        317.2121157884671
28.000869117788827        318.05511618089554
29.284444721387423        318.89811657332405
30.568020324986012        319.7411169657525
31.8515959285846          320.00312152364876
33.13517153218319         320.265126081545
34.41874713578178         320.5271306394413
35.70232273938037         320.78913519733754
36.98589834297897         321.82500214790804
38.26947394657756         322.8608690984786
39.553049550176155        323.8967360490491
40.836625153774754        324.93260299961963
42.12020075737334         325.38807801152416
43.403776360971925        325.84355302342874
44.68735196457052         326.29902803533327
45.9709275681691          326.7545030472378
47.25450317176769         328.10219161811403
48.53807877536628         329.44988018899033
49.82165437896488         330.79756875986664
51.105229982563465        332.1452573307429
52.38880558616206         333.52663768653986
53.67238118976066         334.90801804233683
54.955956793359256        336.28939839813387
56.23953239695784         337.67077875393085
57.523108000556434        340.2075815506274
58.806683604155026        342.74438434732394
60.09025920775361         345.28118714402046
61.373834811352204        347.817989940717
62.657410414950796        349.9328193416411
63.94098601854939         352.0476487425651
65.22456162214799         354.1624781434892
66.50813722574658         356.27730754441325
67.79171282934519         357.79777329586375
69.07528843294376         359.31823904731425
70.35886403654234         360.8387047987648
71.64243964014094         362.3591705502153
72.92601524373954         363.6617287124311
74.20959084733813         364.964286874647
75.49316645093671         366.26684503686283
76.77674205453532         367.5694031990787
78.0603176581339          370.07448482853425
79.34389326173248         372.57956645798987
80.62746886533107         375.08464808744543
81.91104446892965         377.58972971690105
83.19462007252824         379.88799107889093
84.47819567612684         382.1862524408808
85.76177127972544         384.48451380287065
87.04534688332403         386.78277516486054
88.32892248692262         389.7692009902198
89.61249809052121         392.7556268155791
90.89607369411979         395.74205264093837
92.17964929771838         398.72847846629764
93.46322490131698         402.6967201350021
94.74680050491556         406.66496180370666
96.03037610851415         410.63320347241114
97.31395171211274         414.6014451411156
98.59752731571133         417.9232009223994
99.88110291930994         421.2449567036832
101.16467852290853        424.566712484967
102.44825412650712        427.8884682662508
103.73182973010573        430.28639356749
105.01540533370432        432.6843188687292
106.29898093730291        435.0822441699683
107.5825565409015         437.4801694712075
108.8661321445001         439.99428756573633
110.14970774809868        442.5084056602652
111.43328335169727        445.02252375479407
112.71685895529586        447.5366418493229
114.00043455889444        450.7966247041934
115.28401016249303        454.0566075590639
116.56758576609165        457.31659041393436
117.85116136969023        460.57657326880485
119.13473697328882        462.70964044025766
120.41831257688743        464.8427076117105
121.70188818048602        466.9757747831634
122.9854637840846         469.1088419546162
124.26903938768322        472.93151626227404
125.55261499128181        476.7541905699319
126.8361905948804         480.57686487758974
128.119766198479          484.3995391852476
129.4033418020776         487.18784080712845
130.68691740567618        489.97614242900937
131.97049300927478        492.76444405089023
133.25406861287337        495.55274567277115
134.53764421647193        497.5802916594718
135.8212198200705         499.60783764617247
137.1047954236691         501.6353836328732
138.38837102726768        503.66292961957384
139.67194663086627        506.6824531596144
140.95552223446487        509.7019766996549
142.23909783806346        512.7215002396955
143.52267344166205        515.741023779736
144.80624904526064        518.3061740709398
146.08982464885923        520.8713243621437
147.37340025245783        523.4364746533477
148.65697585605642        526.0016249445515
149.940551459655          528.1175431174025
151.2241270632536         530.2334612902537
152.5077026668522         532.3493794631047
153.79127827045082        534.4652976359557
155.0748538740494         536.785561135352
156.358429477648          539.1058246347484
157.6420050812466         541.4260881341448
158.9255806848452         543.7463516335412
160.20915628844375        545.9654654829212
161.49273189204234        548.1845793323012
162.77630749564094        550.4036931816812
164.0598830992395         552.6228070310613
165.34345870283812        554.8259255107151
166.6270343064367         557.029043990369
167.9106099100353         559.2321624700228
169.1941855136339         561.4352809496767
170.47776111723252        563.4872589254378
171.76133672083108        565.539236901199
173.04491232442965        567.5912148769603
174.32848792802824        569.6431928527215
175.61206353162683        571.5097888965798
176.8956391352254         573.3763849404381
178.179214738824          575.2429809842965
179.46279034242258        577.1095770281548
180.74636594602117        579.0270432309139
182.0299415496198         580.9445094336731
183.3135171532184         582.8619756364324
184.597092756817          584.7794418391915
185.88066836041563        586.5348649114505
187.1642439640142         588.2902879837097
188.44781956761275        590.0457110559688
189.73139517121135        591.8011341282279
191.01497077480994        593.5682948690937
192.29854637840853        595.3354556099596
193.58212198200715        597.1026163508255
194.86569758560574        598.8697770916914
196.14927318920434        600.5332156821155
197.43284879280293        602.1966542725396
198.71642439640152        603.8600928629637
200.0000000000001         605.5235314533878
201.28357560359868        606.9175364584266
202.5671512071973         608.3115414634656
203.85072681079586        609.7055464685045
205.13430241439445        611.0995514735433
206.41787801799305        612.6620050282836
207.70145362159164        614.2244585830238
208.98502922519026        615.7869121377639
210.26860482878888        617.3493656925042
211.55218043238747        618.8064396628071
212.83575603598604        620.26351363311
214.1193316395846         621.7205876034129
215.4029072431832         623.1776615737159
216.68648284678176        624.466345222838
217.97005845038038        625.75502887196
219.25363405397897        627.043712521082
220.53720965757753        628.3323961702041
221.82078526117613        629.5298446757263
223.10436086477472        630.7272931812483
224.3879364683733         631.9247416867704
225.67151207197193        633.1221901922926
226.95508767557052        634.2860835155082
228.23866327916912        635.4499768387238
229.5222388827677         636.6138701619394
230.8058144863663         637.777763485155
232.0893900899649         638.5495655067346
233.37296569356346        639.3213675283141
234.65654129716205        640.0931695498937
235.94011690076064        640.8649715714732
237.22369250435924        641.7587234757716
238.50726810795783        642.6524753800699
239.79084371155642        643.5462272843681
241.074419315155          644.4399791886665
242.3579949187536         645.3700121209354
243.6415705223522         646.3000450532043
244.9251461259508         647.230077985473
246.20872172954938        648.1601109177419
247.49229733314797        648.9831128868249
248.77587293674657        649.8061148559078
250.0594485403452         650.6291168249908
251.34302414394378        651.4521187940737
252.62659974754231        652.187220291721
253.9101753511409         652.9223217893682
255.1937509547395         653.6574232870155
256.4773265583381         654.3925247846628
257.7609021619367         655.6851346305887
259.0444777655353         656.9777444765145
260.3280533691339         658.2703543224404
261.61162897273243        659.5629641683663
262.8952045763311         660.3657968834148
264.1787801799297         661.1686295984631
265.46235578352827        661.9714623135114
266.74593138712686        662.7742950285599
268.02950699072545        663.3588300082779
269.31308259432404        663.9433649879959
270.5966581979227         664.527899967714
271.8802338015213         665.112434947432
273.1638094051199         665.6147387087849
274.44738500871847        666.1170424701377
275.73096061231706        666.6193462314906
277.0145362159156         667.1216499928435
278.2981118195142         667.8791979098944
279.5816874231127         668.6367458269453
280.86526302671126        669.3942937439963
282.14883863030985        670.1518416610472
283.43241423390845        670.616599785528
284.71598983750704        671.0813579100088
285.9995654411057         671.5461160344897
287.2831410447043         672.0108741589705
288.5667166483029         672.471514816908
289.8502922519015         672.9321554748454
291.1338678555001         673.3927961327829
292.4174434590987         673.8534367907204
293.7010190626973         674.3743175418898
294.9845946662959         674.8951982930594
296.2681702698944         675.4160790442288
297.551745873493          675.9369597953984
298.8353214770916         676.4787962728906
300.1188970806902         677.0206327503827
301.40247268428885        677.5624692278749
302.68604828788744        678.1043057053671
303.969623891486          678.6466463603502
305.2531994950846         679.1889870153334
306.53677509868317        679.7313276703164
307.82035070228176        680.2736683252996
309.10392630588035        680.8144169416538
310.38750190947894        681.355165558008
311.67107751307753        681.8959141743622
312.9546531166762         682.4366627907165
314.2382287202748         682.7698269732523
315.52180432387337        683.102991155788
316.80537992747196        683.4361553383238
318.0889555310706         683.7693195208597
319.37253113466915        684.1549363839629
320.65610673826774        684.5405532470659
321.9396823418663         684.9261701101691
323.2232579454648         685.3117869732722
324.5068335490634         685.6552465978124
325.790409152662          685.9987062223526
327.07398475626053        686.3421658468927
328.3575603598591         686.6856254714329
329.6411359634577         687.0167831673923
330.92471156705636        687.3479408633516
332.208287170655          687.679098559311
333.49186277425366        688.0102562552704
334.77543837785225        688.2758139555443
336.0590139814508         688.5413716558181
337.3425895850493         688.806929356092
338.6261651886479         689.0724870563658
339.90974079224645        689.3573485038899
341.19331639584505        689.6422099514139
342.4768919994437         689.9270713989379
343.76046760304223        690.2119328464619
345.0440432066408         690.5572960761663
346.3276188102394         690.9026593058708
347.611194413838          691.2480225355753
348.8947700174366         691.5933857652797
350.17834562103525        691.8938063753549
351.46192122463384        692.1942269854301
352.74549682823243        692.4946475955053
354.029072431831          692.7950682055805
355.3126480354296         693.0808910560279
356.5962236390282         693.3667139064754
357.8797992426268         693.6525367569229
359.16337484622534        693.9383596073703
360.446950449824          694.2023967931175
361.7305260534226         694.4664339788646
363.0141016570212         694.7304711646118
364.2976772606198         694.994508350359
365.5812528642184         695.2048563314116
366.86482846781695        695.4152043124643
368.1484040714155         695.625552293517
369.431979675014          695.8359002745697
370.7155552786126         695.9681682830465
371.99913088221126        696.1004362915234
373.28270648580985        696.2327043000003
374.56628208940845        696.364972308477
375.84781935256797        696.5413133747817
377.1293566157274         696.7176544410864
378.41089387888684        696.8939955073911
379.6924311420463         697.0703365736958
380.96989172432757        697.2522381820122
382.24735230660883        697.4341397903285
383.52481288889004        697.6160413986447
384.80227347117136        697.7979430069611
386.0709867064403         697.9453109345636
387.3396999417092         698.0926788621662
388.6084131769782         698.2400467897686
389.87712641224715        698.3874147173711
391.1424856107163         698.4806802179198
392.4078448091854         698.5739457184685
393.6732040076545         698.6672112190172
394.93856320612366        698.7604767195659
396.2039224045927         698.8303653502118
397.46928160306186        698.9002539808577
398.734640801531          698.9701426115035
400                       699.0400312421494
0                         317.96787939849
1.2644152138692057        317.9544426044238
2.5288304277384115        317.9410058103575
3.7932456416076175        317.9275690162913
5.057660855476823         317.914132222225
6.322076069346029         317.6733507647426
7.586491283215235         317.4325693072603
8.850906497084441         317.19178784977794
10.115321710953646        316.95100639229554
11.3883334341091          316.7132642721509
12.661345157264552        316.4755221520063
13.934356880420008        316.23778003186163
15.20736860357546         316.000037911717
16.480380326730916        316.20078737180256
17.75339204988637         316.40153683188817
19.026403773041825        316.60228629197377
20.29941549619728         316.8030357520593
21.58299109979587         316.77162765563037
22.86656670339446         316.7402195592014
24.15014230699305         316.7088114627725
25.433717910591646        316.6774033663435
26.717293514190235        316.7639518226494
28.000869117788827        316.8505002789552
29.284444721387423        316.9370487352611
30.568020324986012        317.0235971915669
31.8515959285846          318.30994190215023
33.13517153218319         319.5962866127336
34.41874713578178         320.8826313233169
35.70232273938037         322.16897603390026
36.98589834297897         323.5911696048295
38.26947394657756         325.0133631757586
39.553049550176155        326.4355567466878
40.836625153774754        327.857750317617
42.12020075737334         328.92004299876453
43.403776360971925        329.9823356799121
44.68735196457052         331.04462836105967
45.9709275681691          332.1069210422072
47.25450317176769         333.2325567213006
48.53807877536628         334.35819240039405
49.82165437896488         335.48382807948747
51.105229982563465        336.6094637585809
52.38880558616206         338.0437024013198
53.67238118976066         339.47794104405875
54.955956793359256        340.9121796867977