% Model:              Cav_Hex_Unif_flux_v5.2.1 - Lin. Distn.mph
% Version:            COMSOL 5.5.0.359
% Date:               Dec 7 2021, 15:22
% Dimension:          1
% Nodes:              2406
% Expressions:        1
% Description:        Line graph
% x                       Height
0                         1001.6710153074772
1.666666666666667E-4      1001.6717825526448
3.333333333333334E-4      1001.6725497978123
5.000000000000001E-4      1001.6733170429798
9.32038170653082E-4       1001.6758213676934
0.001364076341306164      1001.6783256924069
0.001796114511959246      1001.6808300171206
0.0023238742112802963     1001.6840235466709
0.002851633910601346      1001.6872170762211
0.003379393609922397      1001.6904106057715
0.004024082711828395      1001.69377306585
0.004668771813734392      1001.6971355259283
0.00531346091564039       1001.7004979860066
0.0061009860689460555     1001.7025064671465
0.0068885112222517204     1001.7045149482863
0.007676036375557386      1001.706523429426
0.00863804405531423       1001.706672838368
0.00960005173507107       1001.7068222473098
0.010562059414827912      1001.7069716562517
0.011737207626953579      1001.7058384910193
0.012912355839079242      1001.7047053257868
0.014087504051204907      1001.7035721605542
0.015523015793492884      1001.7005512304685
0.016958527535780855      1001.6975303003826
0.01839403927806883       1001.6945093702967
0.020147600182968788      1001.6909268541671
0.021901161087868746      1001.6873443380373
0.0236547219927687        1001.6837618219075
0.02579679840817478       1001.6776910913527
0.027938874823580855      1001.6716203607978
0.030080951238986936      1001.6655496302429
0.032697621898453266      1001.6564098775647
0.03531429255791961       1001.6472701248863
0.03793096321738594       1001.6381303722079
0.041127378289634454      1001.6240068906322
0.04432379336188296       1001.6098834090566
0.04752020843413147       1001.5957599274809
0.051424814952775726      1001.5785417405889
0.05532942147141997       1001.5613235536968
0.05923402799006422       1001.5441053668046
0.06400373146124527       1001.5170158754673
0.06877343493242631       1001.48992638413
0.07354313840360736       1001.4628368927927
0.0793696080092812        1001.4305604638338
0.08519607761495503       1001.3982840348749
0.09102254722062886       1001.366007605916
0.0981399179903122        1001.3281809214977
0.10525728875999552       1001.2903542370793
0.11237465952967884       1001.2525275526609
0.12106894099022857       1001.201060500738
0.1297632224507783        1001.1495934488149
0.138457503911328         1001.098126396892
0.14907807329872969       1001.0296665218394
0.15969864268613135       1000.9612066467869
0.170319212073533         1000.8927467717343
0.18329285395809308       1000.8070960442383
0.19626649584265313       1000.7214453167421
0.20924013772721323       1000.6357945892461
0.22508819423051815       1000.5351687063815
0.240936250733823         1000.4345428235167
0.2567843072371279        1000.333916940652
0.2761436280174072        1000.205779714793
0.29550294879768646       1000.077642488934
0.3148622695779657        999.949505263075
0.33851080345314394       999.8031105524991
0.3621593373283221        999.656715841923
0.3858078712035003        999.5103211313468
0.4146959278038571        999.3125125333669
0.44358398440421387       999.1147039353868
0.4724720410045705        998.9168953374069
0.5077604786959072        998.6702024439759
0.5430489163872438        998.4235095505448
0.5783373540785804        998.1768166571138
0.6214442287265508        997.8951394148453
0.6645511033745212        997.6134621725766
0.7076579780224915        997.331784930308
0.7603154096074253        996.9795850447666
0.8129728411923589        996.627385159225
0.8656302727772925        996.2751852736835
0.9299115292406592        995.8559879055632
0.9941927857040258        995.4367905374428
1.0584740421673924        995.0175931693225
1.1352913476494328        994.5163625975538
1.212108653131473         994.015132025785
1.2889259586135136        993.5139014540161
1.3764451835938112        992.9413741799264
1.4639644085741088        992.3688469058364
1.5514836335544067        991.7963196317467
1.6485168989479673        991.1802043540719
1.7455501643415277        990.564089076397
1.8425834297350883        989.947973798722
1.9501448404146438        989.2467382392616
2.0577062510941992        988.545502679801
2.1652676617737545        987.8442671203404
2.28378271251732          987.0361961767409
2.4022977632608846        986.2281252331412
2.5208128140044495        985.4200542895416
2.647616997072163         984.5280227214331
2.774421180139876         983.6359911533244
2.90122536320759          982.7439595852157
3.0309267451201363        981.7738880835188
3.1606281270326826        980.8038165818218
3.2903295089452285        979.8337450801249
3.4200785936416875        978.8369059275294
3.5498276783381453        977.8400667749338
3.6795767630346043        976.8432276223383
3.8093258477319862        975.841744647013
3.939074932429368         974.8402616716875
4.06882401712675          973.8387786963619
4.198573101824132         972.8444895303816
4.328322186521514         971.850200364401
4.458071271218896         970.8559111984205
4.587820355916277         969.8636360080378
4.717569440613659         968.871360817655
4.8473185253110405        967.8790856272723
4.977067610008422         966.8886356677655
5.106816694705803         965.8981857082586
5.236565779403184         964.9077357487516
5.366314864100568         963.8841644183077
5.496063948797949         962.8605930878638
5.625813033495332         961.8370217574198
5.755562118192713         960.791823479038
5.885311202890095         959.7466252006561
6.015060287587476         958.7014269222742
6.1448093722848585        957.653777621292
6.27455845698224          956.6061283203095
6.404307541679624         955.5584790193271
6.534056626377005         954.5118102506843
6.663805711074385         953.4651414820414
6.793554795771767         952.4184727133986
6.92330388046915          951.3878743299069
7.053052965166531         950.3572759464151
7.182802049863913         949.3266775629235
7.312551134561295         948.3316329786429
7.4423002192586765        947.3365883943623
7.572049303956058         946.3415438100816
7.70179838865344          945.3705248513788
7.831547473350821         944.399505892676
7.961296558048205         943.4284869339732
8.091045642745588         942.482163248234
8.220794727442971         941.5358395624945
8.350543812140351         940.5895158767551
8.480292896837733         939.673010400687
8.610041981535113         938.7565049246188
8.739791066232495         937.8399994485507
8.869540150929879         936.9495728597167
8.99928923562726          936.0591462708826
9.129038320324643         935.1687196820486
9.258787405022025         934.2900264822365
9.388536489719407         933.4113332824242
9.51828557441679          932.5326400826119
9.64803465911417          931.681190362688
9.777783743811552         930.8297406427638
9.907532828508934         929.9782909228396
10.037281913206316        929.1418768392592
10.1670309979037          928.3054627556787
10.296780082601082        927.4690486720982
10.426529167298463        926.6572459935312
10.556278251995844        925.845443314964
10.686027336693222        925.0336406363969
10.815776421390607        924.2478438933632
10.945525506087991        923.4620471503293
11.075274590785373        922.6762504072955
11.205023675482755        921.9087902751319
11.334772760180135        921.1413301429682
11.464521844877517        920.3738700108046
11.5942709295749          919.6289820180764
11.724020014272279        918.8840940253482
11.853769098969662        918.13920603262
11.983518183667046        917.414363412715
12.113267268364428        916.6895207928101
12.243016353061812        915.9646781729051
12.37276543775919         915.2620609727813
12.50251452245657         914.5594437726575
12.63226360715395         913.8568265725337
12.762012691851332        913.1723924144427
12.891761776548716        912.4879582563515
13.021510861246101        911.8035240982603
13.151259945943481        911.1400527108328
13.281009030640861        910.4765813234053
13.410758115338242        909.8131099359779
13.540507200035625        909.1666184026899
13.670256284733007        908.5201268694018
13.80000536943039         907.8736353361138
13.929754454127774        907.251856640778
14.059503538825156        906.630077945442
14.189252623522538        906.0082992501061
14.31900170821992         905.3975784665619
14.448750792917298        904.7868576830175
14.578499877614679        904.1761368994731
14.708248962312064        903.5753891118721
14.837998047009446        902.974641324271
14.967747131706831        902.37389353667
15.097496216404215        901.7953471012073
15.227245301101595        901.2168006657445
15.356994385798975        900.6382542302816
15.486743470496359        900.07826152998
15.61649255519374         899.5182688296782
15.746241639891124        898.9582761293765
15.875990724588506        898.4173089922739
16.00573980928588         897.8763418551712
16.13548889398326         897.3353747180685
16.265237978680645        896.812313161351
16.39498706337803         896.2892516046333
16.524736148075412        895.7661900479156
16.6544852327728          895.2596994604207
16.784234317470176        894.7532088729256
16.91398340216756         894.2467182854306
17.043732486864943        893.7560968545687
17.173481571562327        893.2654754237066
17.30323065625971         892.7748539928446
17.43297974095709         892.2996574779487
17.56272882565447         891.8244609630526
17.69247791035185         891.3492644481566
17.822226995049235        890.8887427309829
17.951976079746615        890.428221013809
18.081725164443995        889.9676992966351
18.21147424914138         889.5202583233228
18.34122333383876         889.0728173500102
18.470972418536142        888.6253763766977
18.600721503233526        888.1897416336525
18.730470587930906        887.7541068906072
18.860219672628286        887.318472147562
18.98996875732567         886.8964465259336
19.119717842023054        886.474420904305
19.249466926720437        886.0523952826765
19.37921601141782         885.6434882218281
19.5089650961152          885.2345811609795
19.638714180812585        884.825674100131
19.76846326550997         884.4295643948057
19.89821235020735         884.0334546894802
20.027961434904732        883.6373449841549
20.157710519602112        883.2534173364077
20.287459604299492        882.8694896886605
20.417208688996876        882.4855620409132
20.546957773694263        882.1136712763368
20.676706858391647        881.7417805117605
20.80645594308903         881.3698897471841
20.93620502778641         881.0092697672239
21.06595411248379         880.6486497872637
21.195703197181174        880.2880298073035
21.325452281878558        879.9379651730278
21.455201366575935        879.587900538752
21.584950451273315        879.2378359044764
21.714699535970702        878.8987930752994
21.844448620668086        878.5597502461225
21.97419770536547         878.2207074169455
22.103946790062853        877.8925609195271
22.233695874760233        877.5644144221086
22.363444959457613        877.2362679246902
22.493194044154997        876.9185089280819
22.622943128852377        876.6007499314735
22.75269221354976         876.2829909348651
22.88244129824714         875.9752655287494
23.01219038294452         875.6675401226337
23.1419394676419          875.3598147165179
23.271688552339285        875.0614546789054
23.40143763703666         874.7630946412928
23.53118672173404         874.4647346036802
23.660935806431425        874.1748768554838
23.79068489112881         873.8850191072872
23.92043397582619         873.5951613590906
24.050183060523572        873.3139758050503
24.17993214522095         873.0327902510097
24.30968122991833         872.7516046969693
24.439430314615713        872.4789556811213
24.569179399313093        872.2063066652732
24.69892848401048         871.9336576494252
24.828677568707864        871.6694841709242
24.958426653405244        871.405310692423
25.088175738102628        871.1411372139218
25.21792482280001         870.8850634601914
25.34767390749739         870.628989706461
25.477422992194775        870.3729159527305
25.60717207689216         870.1249303694842
25.736921161589542        869.8769447862377
25.866670246286922        869.6289592029912
25.99641933098431         869.3887862624572
26.12616841568169         869.148613321923
26.25591750037907         868.9084403813889
26.385666585076446        868.6755960393393
26.515415669773823        868.4427516972895
26.645164754471203        868.2099073552398
26.774913839168587        867.9842876700843
26.904662923865967        867.7586679849287
27.03441200856335         867.5330482997732
27.164161093260734        867.3157029660131
27.293910177958118        867.0983576322529
27.423659262655498        866.8810122984928
27.553408347352885        866.6717988608116
27.683157432050262        866.4625854231303
27.812906516747645        866.2533719854491
27.94265560144503         866.051119853579
28.07240468614241         865.848867721709
28.202153770839793        865.6466155898389
28.331902855537177        865.4443801264273
28.461651940234553        865.2421446630156
28.591401024931937        865.0399091996038
28.72115010962932         864.8455005755131
28.8508991943267          864.6510919514224
28.980648279024088        864.4566833273316
29.110397363721464        864.2691585276682
29.240146448418844        864.0816337280047
29.369895533116228        863.8941089283412
29.499644617813612        863.7137508117163
29.629393702510995        863.5333926950913
29.759142787208376        863.3530345784663
29.888891871905756        863.1790667041886
30.018640956603136        863.0050988299106
30.148390041300516        862.8311309556326
30.278139125997903        862.6642443727815
30.407888210695283        862.4973577899302
30.537637295392663        862.3304712070791
30.667386380090047        862.1693509883481
30.79713546478743         862.0082307696172
30.926884549484814        861.8471105508862
31.056633634182194        861.6930061155963
31.18638271887957         861.5389016803064
31.31613180357695         861.3847972450164
31.44588088827434         861.2348196808377
31.575629972971726        861.084842116659
31.705379057669106        860.9348645524803
31.83512814236649         860.7905105458194
31.96487722706387         860.6461565391584
32.09462631176126         860.5018025324974
32.22437539645864         860.3627684895981
32.35412448115602         860.2237344466986
32.4838735658534          860.0847004037992
32.61362265055078         859.9502830860258
32.743371735248154        859.8158657682523
32.873120819945534        859.6814484504788
33.00286990464292         859.5519175909044
33.1326189893403          859.4223867313298
33.26236807403769         859.2928558717551
33.39211715873507         859.1678254327093
33.521866243432456        859.0427949936632
33.65161532812983         858.9177645546172
33.781364412827216        858.7976464240994
33.911113497524596        858.6775282935815
34.04086258222198         858.5574101630638
34.17061166691936         858.4418947014843
34.30036075161674         858.3263792399049
34.43010983631412         858.2108637783255
34.559858921011504        858.1000610610273
34.689608005708884        857.9892583437291
34.81935709040627         857.878455626431
34.949106175103644        857.7720913019978
35.078855259801024        857.6657269775644
35.208604344498404        857.5593626531312
35.33835342919579         857.4574289793377
35.46810251389317         857.355495305544
35.59785159859055         857.2535616317502
35.72760068328794         857.1559177063491
35.85734976798532         857.0582737809478
35.987098852682706        856.9606298555467
36.11684793738009         856.8670762060989
36.246597022077474        856.773522556651
36.376346106774854        856.679968907203
36.50609519147224         856.5896147848432
36.635844276169614        856.4992606624833
36.765593360867           856.4089065401234
36.895342445564374        856.3221879848962
37.025091530261754        856.2354694296689
37.15484061495913         856.1487508744417
37.284589699656514        856.0656051885071
37.414338784353895        855.9824595025724
37.54408786905128         855.8993138166377
37.67383695374867         855.8196017455537
37.80358603844604         855.7398896744696
37.93333512314343         855.6601776033856
38.06308420784081         855.5838869929811
38.1928332925382          855.5075963825765
38.32258237723558         855.4313057721719
38.45233146193296         855.3583861022657
38.582080546630344        855.2854664323595
38.711829631327724        855.2125467624533
38.84157871602511         855.1429909284315
38.97132780072249         855.0734350944094
39.10107688541987         855.0038792603875
39.23082597011726         854.9376217058573
39.36057505481464         854.8713641513268
39.49032413951202         854.8051065967963
39.620073224209406        854.7421352173088
39.749822308906786        854.6791638378212
39.87957139360417         854.6161924583337
40.009320478301554        854.5564625148601
40.13906956299894         854.4967325713865
40.26881864769632         854.4370026279129
40.3985677323937          854.3804299332783
40.52831681709108         854.3238572386435
40.65806590178846         854.2672845440089
40.78781498648584         854.2138334041124
40.917564071183214        854.1603822642156
41.047313155880595        854.1069311243189
41.17706224057799         854.0564068759132
41.306811325275376        854.0058826275074
41.43656040997276         853.9553583791017
41.56630949467015         853.9076836005389
41.696058579367524        853.8600088219761
41.825807664064904        853.8123340434133
41.95555674876229         853.7673474480815
42.085305833459664        853.7223608527496
42.215054918157044        853.6773742574178
42.34480400285443         853.6351151501038
42.47455308755181         853.5928560427898
42.6043021722492          853.5505969354757
42.734051256946586        853.5108859969649
42.86380034164396         853.471175058454
42.993549426341346        853.4314641199433
43.123298511038726        853.3943435427328
43.25304759573611         853.3572229655222
43.3827966804335          853.3201023883115
43.51254576513088         853.2854092888302
43.642294849828254        853.2507161893489
43.77204393452563         853.2160230898675
43.90179301922302         853.1838453559551
44.031542103920415        853.1516676220425
44.16129118861781         853.11948988813
44.2910402733152          853.0896809539286
44.42078935801256         853.059872019727
44.55053844270994         853.0300630855254
44.68028752740732         853.0027040790208
44.810036612104696        852.975345072516
44.93978569680207         852.9479860660114
45.069534781499456        852.9228485509619
45.19928386619684         852.8977110359123
45.329032950894224        852.8725735208626
45.45878203559162         852.8497260251635
45.588531120289           852.8268785294642
45.718280204986385        852.804031033765
45.84802928968376         852.7832285954086
45.97777837438114         852.762426157052
46.10752745907852         852.7416237186955
46.237276543775906        852.7230104992307
46.367025628473286        852.7043972797658
46.496774713170666        852.685784060301
46.62652379786805         852.6691680073293
46.756272882565426        852.6525519543574
46.88602196726281         852.6359359013856
47.0157710519602          852.6214926807581
47.14552013665758         852.6070494601305
47.27526922135496         852.592606239503
47.40501830605234         852.5801152350897
47.534767390749714        852.5676242306762
47.6645164754471          852.5551332262628
47.79426556014448         852.5447300022465
47.92401464484186         852.53432677823
48.05376372953924         852.5239235542135
48.18351281423663         852.5153677379756
48.31326189893401         852.5068119217374
48.4430109836314          852.4982561054993
48.57276006832878         852.4917349960236
48.70250915302616         852.4852138865479
48.83225823772355         852.4786927770721
48.96200732242094         852.4739897898867
49.09175640711831         852.469286802701
49.2215054918157          852.4645838155154
49.351254576513085        852.4616735805325
49.48100366121046         852.4587633455494
49.610752745907845        852.4558531105664
49.74050183060523         852.4550106467113
49.87025091530262         852.454168182856
50                        852.4533257190009
0                         995.1207562941595
0.12820512820512822       994.1762533741929
0.25641025641025644       993.2317504542262
0.38461538461538475       992.2872475342596
0.512820512820513         991.4732768387165
0.6410256410256411        990.6593061431735
0.7692307692307695        989.8453354476304
0.8974358974358978        989.1014216547015
1.025641025641026         988.3575078617727
1.1538461538461544        987.6135940688438
1.2820512820512826        986.9618280437562
1.4102564102564108        986.3100620186685
1.5384615384615392        985.658295993581
1.6666666666666674        985.0800733521754
1.7948717948717956        984.5018507107696
1.9230769230769238        983.9236280693639
2.051282051282052         983.4063675592548
2.1794871794871797        982.8891070491457
2.307692307692308         982.3718465390366
2.4358974358974366        981.9082494197842
2.5641025641025643        981.4446523005317
2.692307692307693         980.9810551812793
2.820512820512821         980.5595969424651
2.948717948717949         980.1381387036508
3.0769230769230775        979.7166804648366
3.2051282051282053        979.3403820472192
3.333333333333333         978.9640836296019
3.4615384615384617        978.5877852119845
3.5897435897435903        978.2508777861547
3.717948717948718         977.9139703603247
3.846153846153847         977.5770629344948
3.9743589743589753        977.285220807345
4.102564102564102         976.9933786801951
4.230769230769231         976.7015365530451
4.358974358974359         976.4568026434546
4.487179487179487         976.2120687338639
4.615384615384616         975.9673348242733
4.7435897435897445        975.7472260791664
4.871794871794873         975.5271173340593
5.000000000000001         975.3070085889524
5.129310344827587         975.1117997049931
5.258620689655173         974.9165908210338
5.387931034482759         974.7213819370745
5.517241379310346         974.4718146169976
5.646551724137932         974.2222472969204
5.775862068965519         973.9726799768432
5.905172413793104         973.676187264864
6.0344827586206895        973.3796945528846
6.163793103448276         973.0832018409053
6.293103448275862         972.7169639527983
6.4224137931034475        972.3507260646911
6.551724137931035         971.9844881765839
6.681034482758622         971.5541848225785
6.810344827586207         971.1238814685729
6.9396551724137945        970.6935781145673
7.068965517241381         970.2288238265185
7.198275862068966         969.7640695384695
7.3275862068965525        969.2993152504205
7.456896551724139         968.8214698428836
7.586206896551725         968.3436244353467
7.7155172413793105        967.8657790278097
7.844827586206898         967.366849924738
7.974137931034483         966.8679208216661
8.10344827586207          966.3689917185942
8.232758620689655         965.8310056420727
8.362068965517242         965.2930195655509
8.491379310344827         964.7550334890293
8.620689655172415         964.1742511343533
8.75                      963.5934687796772
8.879310344827587         963.0126864250011
9.008620689655174         962.416829330985
9.13793103448276          961.8209722369688
9.267241379310345         961.2251151429526
9.396551724137932         960.5856091243385
9.525862068965518         959.9461031057241
9.655172413793103         959.3065970871098
9.78448275862069          958.6179748981675
9.913793103448274         957.9293527092251
10.043103448275861        957.2407305202827
10.172413793103448        956.5417574323959
10.301724137931036        955.842784344509
10.431034482758621        955.1438112566221
10.560344827586208        954.425478103899
10.689655172413794        953.7071449511757
10.81896551724138         952.9888117984525
10.948275862068968        952.2715649773772
11.077586206896553        951.5543181563017
11.206896551724139        950.8370713352264
11.336206896551724        950.1345100675801
11.46551724137931         949.4319487999336
11.594827586206893        948.7293875322872
11.72413793103448         948.0250117694226
11.853448275862066        947.3206360065577
11.982758620689653        946.616260243693
12.11206896551724         945.9337656301066
12.241379310344826        945.2512710165199
12.370689655172413        944.5687764029333
12.5                      943.8993438361847
12.629310344827587        943.229911269436
12.758620689655173        942.5604787026873
12.88793103448276         941.9063791002053
13.017241379310345        941.2522794977231
13.146551724137929        940.598179895241
13.275862068965516        939.951823166561
13.4051724137931          939.3054664378809
13.534482758620687        938.6591097092008
13.663793103448274        938.0226571832076
13.793103448275861        937.3862046572142
13.922413793103447        936.7497521312209
14.051724137931036        936.1238816696249
14.18103448275862         935.4980112080287
14.310344827586206        934.8721407464326
14.439655172413794        934.2564137376414
14.568965517241377        933.6406867288501
14.698275862068963        933.0249597200589
14.82758620689655         932.4193470742931
14.956896551724135        931.8137344285273
15.08620689655172         931.2081217827614
15.21551724137931         930.6248149110057
15.344827586206893        930.04150803925
15.47413793103448         929.4582011674942
15.603448275862068        928.892710330488
15.732758620689651        928.3272194934816
15.862068965517238        927.7617286564753
15.991379310344826        927.2124031844861
16.120689655172413        926.6630777124968
16.25                     926.1137522405076
16.379310344827587        925.5850526612729
16.50862068965517         925.0563530820381
16.637931034482754        924.5276535028033
16.76724137931034         924.0055435265502
16.89655172413793         923.4834335502969
17.025862068965516        922.9613235740437
17.155172413793103        922.4515432360199
17.28448275862069         921.9417628979959
17.413793103448274        921.431982559972
17.54310344827586         920.9382767940442
17.672413793103445        920.4445710281162
17.801724137931032        919.9508652621882
17.931034482758616        919.4739631235979
18.060344827586203        918.9970609850072
18.189655172413786        918.5201588464167
18.318965517241374        918.0561878321059
18.448275862068957        917.592216817795
18.577586206896544        917.1282458034841
18.70689655172413         916.6779124159189
18.836206896551715        916.2275790283534
18.965517241379303        915.777245640788
19.09482758620689         915.335266230999
19.224137931034477        914.8932868212097
19.353448275862064        914.4513074114205
19.482758620689648        914.0240222998102
19.61206896551723         913.5967371881997
19.74137931034482         913.1694520765891
19.870689655172406        912.7554232779993
19.999999999999993        912.3413944794092
20.12931034482758         911.9273656808193
20.258620689655167        911.5271062531938
20.387931034482754        911.126846825568
20.517241379310338        910.7265873979424
20.646551724137925        910.3390480343738
20.775862068965512        909.9515086708052
20.905172413793096        909.5639693072367
21.034482758620683        909.1899884984624
21.163793103448267        908.816007689688
21.29310344827585         908.4420268809137
21.422413793103438        908.0798893261974
21.551724137931025        907.717751771481
21.681034482758612        907.3556142167646
21.810344827586196        907.0062508067116
21.93965517241378         906.6568873966585
22.068965517241363        906.3075239866054
22.19827586206895         905.9679672518636
22.327586206896537        905.6284105171216
22.456896551724125        905.2888537823796
22.58620689655171         904.9604301886266
22.7155172413793          904.6320065948732
22.844827586206886        904.30358300112
22.974137931034473        903.9852875028292
23.10344827586206         903.6669920045382
23.232758620689644        903.3486965062473
23.36206896551723         903.037876364189
23.491379310344815        902.7270562221304
23.620689655172402        902.4162360800718
23.74999999999999         902.1142634910177
23.879310344827573        901.8122909019635
24.00862068965516         901.5103183129092
24.137931034482747        901.215141108864
24.267241379310335        900.9199639048186
24.396551724137918        900.6247867007731
24.52586206896551         900.3392767065957
24.655172413793093        900.0537667124181
24.784482758620676        899.7682567182405
24.91379310344826         899.4911900180788
25.043103448275843        899.2141233179168
25.172413793103427        898.9370566177549
25.301724137931018        898.6692693539633
25.431034482758605        898.4014820901714
25.560344827586196        898.1336948263796
25.689655172413783        897.8740643277988
25.818965517241367        897.6144338292178
25.948275862068954        897.3548033306367
26.077586206896544        897.1041781732939
26.20689655172413         896.8535530159509
26.336206896551715        896.6029278586079
26.465517241379306        896.3597411610189
26.59482758620689         896.1165544634296
26.724137931034473        895.8733677658404
26.85344827586206         895.6381431964342
26.982758620689644        895.4029186270278
27.11206896551723         895.1676940576216
27.241379310344822        894.9402810374153
27.370689655172406        894.712868017209