% Model:              Cav_Hex_Unif_flux_v5.2.1 - Lin. Distn.mph
% Version:            COMSOL 5.5.0.359
% Date:               Dec 7 2021, 15:23
% Dimension:          1
% Nodes:              2892
% Expressions:        1
% Description:        Line graph
% x                       Height
0                         1225.892514491213
0.0013333333333333335     1225.9033127508676
0.002666666666666667      1225.9141110105224
0.004000000000000001      1225.924909270177
0.006839325587787271      1225.949964842093
0.009678651175574541      1225.975020414009
0.012517976763361813      1226.000075985925
0.015984007220796917      1226.025219917577
0.019450037678232016      1226.0503638492294
0.02291606813566712       1226.0755077808815
0.027148615008456386      1226.097414456373
0.031381161881245644      1226.1193211318641
0.035613708754034905      1226.1412278073553
0.04078228905501621       1226.1685224537327
0.045950869355997515      1226.19581710011
0.051119449656978816      1226.2231117464871
0.05743106843654284       1226.2460092968968
0.06374268721610686       1226.2689068473067
0.07005430599567088       1226.2918043977163
0.0777617477492536        1226.3239544201797
0.08546918950283629       1226.356104442643
0.09317663125641902       1226.3882544651065
0.10258858411028716       1226.401408340483
0.11200053696415531       1226.4145622158594
0.12141248981802347       1226.4277160912359
0.13290590869234994       1226.4604602027428
0.14439932756667642       1226.4932043142494
0.1558927464410029        1226.525948425756
0.16992795034306857       1226.5498840088387
0.18396315424513418       1226.5738195919212
0.19799835814719985       1226.5977551750038
0.21513746625127306       1226.6434312524218
0.23227657435534624       1226.6891073298395
0.24941568245941945       1226.7347834072575
0.270345127350473         1226.7599347839562
0.29127457224152664       1226.785086160655
0.31220401713258017       1226.8102375373537
0.33776203688410755       1226.8847801753348
0.36332005663563494       1226.9593228133158
0.38887807638716226       1227.0338654512968
0.42008828654894276       1227.1183412485525
0.4512984967107232        1227.202817045808
0.48250870687250363       1227.2872928430636
0.5206210969485733        1227.4242739500244
0.5587334870246429        1227.5612550569854
0.5968458771007125        1227.6982361639461
0.6433868734535227        1227.804861045997
0.689927869806333         1227.9114859280478
0.7364688661591432        1228.0181108100987
0.7933024663922591        1228.2611415383496
0.850136066625375         1228.5041722666008
0.9069696668584907        1228.7472029948517
0.976372094150122         1229.0354781404603
1.0457745214417533        1229.3237532860687
1.1151769487333847        1229.6120284316773
1.1999278160761295        1229.982741137924
1.2846786834188744        1230.3534538441706
1.3694295507616194        1230.7241665504173
1.4729231862963332        1231.2660479609272
1.576416821831047         1231.8079293714372
1.6799104573657608        1232.349810781947
1.8062918494625864        1233.1251701097017
1.9326732415594117        1233.9005294374563
2.059054633656237         1234.6758887652109
2.213385440432897         1235.702271441188
2.367716247209556         1236.728654117165
2.5220470539862156        1237.755036793142
2.710508326054489         1239.078717379259
2.8989695981227634        1240.4023979653757
3.0874308701910373        1241.7260785514927
3.317570605810863         1243.3855645964543
3.5477103414306885        1245.0450506414159
3.777850077050514         1246.7045366863774
4.058885524439176         1248.9246085935783
4.339920971827837         1251.1446805007793
4.620956419216499         1253.3647524079802
4.964143233419593         1256.1621940190523
5.307330047622686         1258.9596356301242
5.650516861825778         1261.7570772411962
6.060240727884095         1265.0989372160793
6.469964593942411         1268.4407971909625
6.879688460000728         1271.7826571658456
7.34572699386497          1275.4569371012974
7.811765527729211         1279.1312170367491
8.277804061593452         1282.805496972201
8.789797453451515         1286.5027351807694
9.301790845309574         1290.1999733893376
9.813784237167635         1293.8972115979059
10.371386851122665        1297.6788465443517
10.928989465077695        1301.4604814907973
11.486592079032725        1305.242116437243
12.093768716045446        1308.9409839230461
12.700945353058165        1312.639851408849
13.308121990070884        1316.3387188946517
13.969280055895823        1319.1697994711215
14.630438121720761        1322.000880047591
15.291596187545698        1324.8319606240605
16.01153493577552         1327.051973613864
16.73147368400533         1329.2719866036673
17.45141243223515         1331.4919995934706
18.23535779718503         1333.1510569549287
19.01930316213491         1334.8101143163865
19.80324852708479         1336.4691716778443
20.63739530129153         1337.2266551204648
21.471542075498267        1337.984138563085
22.305688849705003        1338.7416220057055
23.159015473265477        1338.4455264851204
24.012342096825947        1338.149430964535
24.865668720386417        1337.8533354439496
25.721939142522707        1336.6543490318606
26.578209564658998        1335.4553626197714
27.43447998679529         1334.2563762076825
28.290952428002512        1332.4538398138172
29.147424869209736        1330.6513034199518
30.00389731041696         1328.8487670260865
30.860369770346544        1326.5791970001326
31.716842230276125        1324.3096269741784
32.57331469020571         1322.0400569482244
33.429787150135304        1319.3281863733166
34.28625961006489         1316.6163157984086
35.14273206999448         1313.9044452235007
35.99920452992407         1310.9239195182945
36.85567698985366         1307.943393813088
37.712149449783254        1304.9628681078816
38.56862190971284         1301.7701835280557
39.425094369642416        1298.5774989482295
40.281566829572           1295.3848143684036
41.13803928950159         1292.0149414739742
41.99451174943118         1288.6450685795446
42.850984209360774        1285.2751956851152
43.707456669290366        1281.6534734504617
44.56392912921996         1278.031751215808
45.42040158914955         1274.4100289811545
46.27687404907914         1270.6043306930787
47.13334650900872         1266.7986324050028
47.98981896893831         1262.9929341169268
48.8462914288679          1259.1546936708369
49.702763888797485        1255.3164532247467
50.55923634872707         1251.4782127786568
51.41570880865667         1247.6468605408477
52.27218126858625         1243.8155083030383
53.12865372851584         1239.984156065229
53.985126188445435        1236.1482062380585
54.841598648375026        1232.3122564108878
55.69807110830461         1228.4763065837171
56.55454356823421         1224.5903807398652
57.4110160281638          1220.7044548960134
58.26748848809339         1216.8185290521615
59.123960948022976        1212.98635906007
59.980433407952546        1209.1541890679785
60.83690586788213         1205.3220190758868
61.69337832781173         1201.5196257407233
62.54985078774132         1197.7172324055596
63.40632324767091         1193.9148390703958
64.26279570760052         1190.143151235237
65.11926816753011         1186.3714634000783
65.9757406274597          1182.5997755649194
66.83221308738929         1178.7779140888517
67.68868554731887         1174.9560526127839
68.54515800724846         1171.134191136716
69.40163046717804         1167.3110445820762
70.25810292710763         1163.4878980274361
71.1145753870372          1159.664751472796
71.9710478469668          1155.8387168522227
72.82752030689639         1152.012682231649
73.68399276682598         1148.1866476110756
74.54046522675557         1144.3508203903134
75.39693768668515         1140.514993169551
76.25341014661474         1136.6791659487888
77.10988260654433         1132.9093020919167
77.96635506647392         1129.1394382350445
78.82282752640353         1125.3695743781725
79.67929998633312         1121.644954791401
80.5357724462627          1117.9203352046297
81.39224490619229         1114.1957156178582
82.24871736612188         1110.4839977757579
83.10518982605147         1106.7722799336573
83.96166228598105         1103.060562091557
84.81813474591065         1099.380804428262
85.67460720584023         1095.7010467649675
86.53107966576982         1092.0212891016727
87.38755212569941         1088.4291756450186
88.24402458562899         1084.8370621883644
89.10049704555858         1081.24494873171
89.95696950548817         1077.7149701862177
90.81344196541777         1074.1849916407252
91.66991442534736         1070.6550130952328
92.52638688527695         1067.1842488688028
93.38285934520653         1063.7134846423726
94.2393318051361          1060.2427204159424
95.09580426506571         1056.8054228311232
95.95227672499529         1053.3681252463039
96.80874918492489         1049.9308276614847
97.66522164485447         1046.5216163119758
98.52169410478406         1043.1124049624666
99.37816656471364         1039.7031936129574
100.23463902464326        1036.3191226874483
101.09111148457286        1032.9350517619391
101.94758394450247        1029.55098083643
102.80405640443205        1026.2571942703598
103.66052886436161        1022.9634077042898
104.51700132429119        1019.6696211382197
105.37347378422076        1016.4315950035063
106.22994624415034        1013.1935688687929
107.08641870407992        1009.9555427340795
107.94289116400951        1006.768803907669
108.7993636239391         1003.5820650812585
109.65583608386869        1000.395326254848
110.51230854379828        997.252421184413
111.36878100372786        994.109516113978
112.22525346365745        990.966611043543
113.08172592358704        987.8838519328112
113.93819838351662        984.8010928220792
114.79467084344623        981.7183337113472
115.65114330337582        978.709032554807
116.5076157633054         975.6997313982666
117.364088223235          972.6904302417264
118.22056068316459        969.7556828272787
119.07703314309417        966.820935412831
119.93350560302378        963.8861879983833
120.78997806295337        961.0564010017246
121.64645052288294        958.2266140050656
122.50292298281255        955.3968270084066
123.35939544274214        952.6372492552317
124.21586790267172        949.8776715020567
125.07234036260131        947.1180937488818
125.92881282253093        944.4191658930546
126.78528528246049        941.7202380372273
127.64175774239008        939.0213101814
128.4982302023197         936.3779462467654
129.35470266224925        933.7345823121307
130.21117512217884        931.0912183774959
131.06764758210844        928.5078201180419
131.92412004203803        925.9244218585876
132.78059250196762        923.3410235991335
133.6370649618972         920.8000740208993
134.49353742182677        918.259124442665
135.35000988175636        915.7181748644308
136.20648234168598        913.2545566925551
137.06295480161558        910.7909385206793
137.91942726154517        908.3273203488036
138.77589972147476        905.92054376949
139.63237218140432        903.5137671901763
140.4888446413339         901.1069906108627
141.3453171012635         898.7543713589914
142.20178956119307        896.4017521071199
143.05826202112266        894.0491328552486
143.91473448105225        891.7561888520854
144.7712069409818         889.463244848922
145.6276794009114         887.1703008457587
146.484151860841          884.9396646817486
147.3406243207706         882.7090285177383
148.19709678070018        880.478392353728
149.05356924062977        878.3217218743995
149.91004170055936        876.1650513950707
150.76651416048895        874.008380915742
151.62298662041852        871.9113246165984
152.4794590803481         869.8142683174547
153.33593154027767        867.717212018311
154.1924040002073         865.6818639059084
155.04887646013688        863.6465157935056
155.9053489200665         861.6111676811029
156.76182137999606        859.6442110692507
157.61829383992566        857.6772544573984
158.47476629985522        855.710297845546
159.33123875978484        853.796972877637
160.1877112197144         851.883647909728
161.044183679644          849.970322941819
161.9006561395736         848.1013129154406
162.75712859950318        846.2323028890623
163.61360105943277        844.363292862684
164.47007351936233        842.5379384897667
165.3265459792919         840.7125841168494
166.18301843922146        838.887229743932
167.03949089915105        837.1093219153806
167.8959633590806         835.3314140868291
168.7524358190102         833.5535062582776
169.60890827893982        831.8291450048481
170.4653807388694         830.1047837514185
171.321853198799          828.3804224979889
172.1783256587286         826.7061230203063
173.03479811865813        825.0318235426236
173.8912705785877         823.3575240649408
174.7477430385173         821.7255405716811
175.6042154984469         820.0935570784213
176.4606879583765         818.4615735851617
177.3171604183061         816.8725398268282
178.17363287823568        815.2835060684946
179.0301053381653         813.694472310161
179.8865777980949         812.147675447249
180.74305025802445        810.6008785843367
181.59952271795404        809.0540817214245
182.45599517788364        807.5421071039325
183.31246763781323        806.0301324864404
184.16894009774285        804.5181578689483
185.0254125576724         803.0497156129454
185.88188501760195        801.5812733569425
186.7383574775315         800.1128311009395
187.59482993746113        798.6802297832901
188.45130239739078        797.2476284656406
189.3077748573204         795.815027147991
190.16424731724996        794.4393707967013
191.0207197771795         793.0637144454113
191.87719223710906        791.6880580941214
192.73366469703868        790.3428989280072
193.59013715696827        788.9977397618928
194.44660961689786        787.6525805957785
195.30308207682745        786.3328406407528
196.15955453675704        785.013100685727
197.01602699668663        783.6933607307011
197.87249945661623        782.4031686113722
198.7289719165458         781.112976492043
199.58544437647538        779.8227843727138
200.441916836405          778.5629162626103
201.2983892963346         777.3030481525067
202.15486175626418        776.0431800424032
203.01133421619377        774.8270987400801
203.86780667612334        773.611017437757
204.72427913605293        772.394936135434
205.58075159598252        771.2304629037626
206.43722405591208        770.0659896720911
207.2936965158417         768.9015164404195
208.1501689757713         767.783705748217
209.00664143570086        766.6658950560145
209.86311389563048        765.548084363812
210.71958635556007        764.4594745881141
211.57605881548963        763.370864812416
212.43253127541925        762.2822550367181
213.2890037353488         761.2218136482661
214.1454761952784         760.161372259814
215.00194865520797        759.1009308713619
215.85842111513756        758.0706751884651
216.71489357506712        757.0404195055681
217.57136603499671        756.0101638226713
218.4278384949263         755.0130453312414
219.2843109548559         754.0159268398114
220.1407834147855         753.0188083483814
220.99725587471508        752.0521752274576
221.85372833464467        751.0855421065337
222.71020079457423        750.1189089856098
223.56667325450385        749.1817105741565
224.4231457144334         748.244512162703
225.27961817436298        747.3073137512496
226.1360906342926         746.4116011857546
226.9925630942222         745.5158886202597
227.8490355541518         744.6201760547648
228.7055080140814         743.7584606071867
229.561980474011          742.8967451596087
230.41845293394056        742.0350297120307
231.27492539387018        741.187228133377
232.1313978537997         740.3394265547231
232.9878703137293         739.4916249760693
233.8443427736589         738.6630441063326
234.70081523358846        737.8344632365958
235.55728769351802        737.0058823668589
236.41376015344764        736.200568065086
237.2702326133772         735.395253763313
238.1267050733068         734.5899394615401
238.9831775332364         733.8038170905271
239.83964999316598        733.0176947195141
240.69612245309554        732.2315723485011
241.55259491302516        731.4718920848876
242.40906737295475        730.712211821274
243.26553983288434        729.9525315576604
244.12201229281396        729.2230239177158
244.97848475274353        728.4935162777709
245.83495721267315        727.7640086378261
246.69142967260274        727.0635916122992
247.5479021325323         726.3631745867722
248.40437459246192        725.6627575612453
249.2608470523915         724.9840745199926
250.11731951232107        724.3053914787399
250.97379197225067        723.6267084374872
251.83026443218026        722.9621546805057
252.68673689210985        722.2976009235242
253.54320935203944        721.6330471665427
254.39968181196903        720.9784354211298
255.25615427189857        720.3238236757168
256.11262673182813        719.6692119303037
256.9690991917577         719.027794522972
257.8255716516873         718.3863771156402
258.6820441116169         717.7449597083084
259.5385165715465         717.1124854544717
260.3949890314761         716.4800112006347
261.2514614914057         715.8475369467978
262.1079339513353         715.2364758582188
262.964406411265          714.6254147696397
263.82087887119457        714.0143536810607
264.67735133112416        713.429550998352
265.5338237910537         712.8447483156433
266.3902962509832         712.2599456329345
267.2467687109128         711.6908087444492
268.1032411708424         711.1216718559638
268.959713630772          710.5525349674784
269.8161860907016         710.0007358235831
270.6726585506312         709.4489366796878
271.5291310105608         708.8971375357925
272.38560347049037        708.3637068281174
273.24207593041996        707.8302761204422
274.09854839034955        707.2968454127671
274.95502085027914        706.7819196316855
275.81149331020873        706.2669938506037
276.6679657701383         705.7520680695221
277.5244382300679         705.2504248881959
278.3809106899975         704.7487817068695
279.23738314992704        704.2471385255433
280.0938556098567         703.7582440148933
280.9503280697863         703.2693495042432
281.8068005297159         702.7804549935933
282.6632729896455         702.3106816865344
283.51974544957517        701.8409083794754
284.37621790950476        701.3711350724165
285.23269036943435        700.9108627297649
286.0891628293639         700.4505903871132
286.9456352892934         699.9903180444616
287.80210774922307        699.5397398621649
288.6585802091527         699.0891616798681
289.5150526690823         698.6385834975714
290.3715251290119         698.2019386285303
291.22799758894143        697.7652937594892
292.08447004887097        697.3286488904481
292.94094250880056        696.9073709128911
293.79741496873015        696.4860929353341
294.65388742865974        696.0648149577771
295.5103598885894         695.6606016985035
296.36683234851904        695.2563884392297
297.22330480844863        694.8521751799559
298.0797772683783         694.4672543552451
298.93624972830787        694.0823335305342
299.7927221882375         693.6974127058234
300.6491946481671         693.3304088845339
301.50566710809665        692.9634050632443
302.36213956802624        692.5964012419548
303.2186120279558         692.2438944724386
304.0750844878854         691.8913877029222
304.931556947815          691.5388809334058
305.78802940774455        691.1991385127195
306.6445018676741         690.8593960920331
307.5009743276036         690.5196536713468
308.35744678753326        690.19222311878
309.2139192474629         689.8647925662132
310.0703917073925         689.5373620136464
310.92686416732215        689.222271216737
311.78333662725174        688.9071804198275
312.63980908718133        688.5920896229179
313.4962815471109         688.290144046617
314.3527540070405         687.9881984703161
315.2092264669701         687.6862528940152
316.06569892689976        687.3989873936283
316.92217138682935        687.1117218932413
317.77864384675894        686.8244563928544
318.63511630668853        686.5514106591937
319.4915887666181         686.278364925533
320.3480612265477         686.0053191918723
321.20453368647736        685.7436120369341
322.06100614640695        685.4819048819958
322.91747860633654        685.2201977270576
323.77395106626614        684.968424140077
324.63042352619567        684.7166505530963
325.48689598612526        684.4648769661156
326.3433684460549         684.2224685390877
327.1998409059845         683.9800601120596
328.0563133659141         683.7376516850317
328.9127858258437         683.5044841027452
329.7692582857733         683.2713165204586
330.62573074570287        683.0381489381721
331.48220320563246        682.8145822245025
332.338675665562          682.5910155108329
333.1951481254916         682.3674487971633
334.05162058542123        682.1547345048681
334.9080930453508         681.9420202125727
335.7645655052804         681.7293059202775
336.62103796521           681.5270920313628
337.4775104251396         681.3248781424481
338.3339828850692         681.1226642535335
339.1904553449988         680.9295686133394
340.0469278049284         680.7364729731452
340.90340026485796        680.543377332951
341.75987272478756        680.3582339368196
342.61634518471715        680.1730905406881
343.47281764464674        679.9879471445568
344.32929010457633        679.8103649265893
345.1857625645059         679.6327827086218
346.04223502443557        679.4552004906543
346.8987074843652         679.2851807517965
347.75517994429475        679.1151610129386
348.61165240422434        678.9451412740808
349.468124864154          678.7830964779743
350.3245973240835         678.6210516818677
351.1810697840131         678.4590068857611
352.03754224394277        678.3059437265719
352.89401470387236        678.1528805673825
353.750487163802          677.9998174081932
354.6069596237316         677.8562365499729
355.46343208366113        677.7126556917525
356.3199045435907         677.5690748335322
357.1763770035203         677.4343975061493
358.0328494634499         677.2997201787663
358.8893219233795         677.1650428513833
359.7457943833091         677.0381639579896
360.6022668432387         676.9112850645957
361.4587393031683         676.7844061712019
362.31521176309786        676.664929299638
363.17168422302746        676.5454524280738
364.02815668295705        676.4259755565097
364.8846291428867         676.3139330637392
365.7411016028163         676.2018905709685
366.5975740627459         676.089848078198
367.45404652267547        675.9855365459445
368.31051898260506        675.8812250136908
369.16699144253465        675.7769134814372
370.02346390246424        675.6811779176201
370.87993636239383        675.5854423538028
371.7364088223234         675.4897067899856
372.592881282253          675.4035278117246
373.44935374218255        675.3173488334636
374.30582620211214        675.2311698552026
375.1622986620418         675.1546864048311
376.0187711219714         675.0782029544594
376.87524358190103        675.0017195040878
377.7317160418306         674.933428339233
378.58818850176016        674.8651371743781
379.4446609616897         674.7968460095233
380.3011334216194         674.7357778715542
381.157605881549          674.6747097335849
382.0140783414786         674.6136415956157
382.87055080140817        674.5592779668372
383.7270232613377         674.5049143380585
384.58349572126724        674.4505507092799
385.43996818119695        674.4036966882236
386.29644064112654        674.3568426671671
387.15291310105613        674.3099886461107
388.0093855609857         674.2743415702286
388.86585802091525        674.2386944943462
389.7223304808448         674.2030474184639
390.57880294077444        674.1764331709753
391.435275400704          674.1498189234866
392.29174786063356        674.1232046759978
393.1482203205632         674.1027602552039
394.00469278049275        674.0823158344099
394.8611652404224         674.0618714136159
395.71763770035204        674.0477440107146
396.57411016028163        674.0336166078132
397.4305826202112         674.0194892049118
398.2870550801408         674.0141120927295
399.1435275400704         674.0087349805472
400                       674.0033578683649
0                         984.1255696569189
0.8333333333333335        984.2141739761024
1.666666666666667         984.3027782952857
2.5000000000000004        984.3913826144692
3.3333333333333344        985.619968212863
4.166666666666669         986.8485538112566
5.000000000000002         988.0771394096502
5.833333333333336         989.8649316472245
6.666666666666668         991.6527238847987
7.500000000000003         993.440516122373
8.333333333333336         995.655037361122
9.166666666666666         997.869558599871
10                        1000.08407983862
10.833333333333336        1002.9069680902495
11.66666666666667         1005.7298563418788
12.500000000000002        1008.552744593508
13.333333333333337        1011.6995697878878
14.166666666666671        1014.8463949822674
15.000000000000005        1017.993220176647
15.833333333333337        1021.3399553020114
16.66666666666667         1024.6866904273757
17.500000000000004        1028.03342555274
18.333333333333336        1031.5910347015747
19.166666666666668        1035.1486438504091
20                        1038.7062529992436
20.833333333333336        1042.7216050254417
21.666666666666668        1046.7369570516398
22.5                      1050.752309077838
23.333333333333332        1055.3110379222142
24.166666666666664        1059.8697667665906
24.999999999999996        1064.4284956109668
25.833333333333336        1069.4038534195624
26.66666666666667         1074.3792112281578
27.50000000000001         1079.3545690367532
28.33333333333335         1084.7676529235607
29.166666666666682        1090.180736810368
30.000000000000014        1095.5938206971753
30.833333333333343        1101.6099128778449
31.666666666666675        1107.6260050585142
32.50000000000001         1113.6420972391838
33.33333333333334         1120.6238824529364
34.16666666666668         1127.605667666689
35.00000000000001         1134.5874528804416
35.83333333333334         1142.2236452825186
36.66666666666667         1149.8598376845955
37.50000000000001         1157.4960300866724
38.33333333333334         1165.6573203565492
39.16666666666668         1173.8186106264263
40.00000000000001         1181.9799008963032
40.85714285714287         1190.623663409736
41.71428571428572         1199.2674259231687
42.571428571428584        1207.9111884366016
43.428571428571445        1215.8122769431159
44.2857142857143          1223.7133654496304
45.14285714285715         1231.6144539561446
46.000000000000014        1238.1585503261765
46.85714285714287         1244.7026466962081
47.71428571428573         1251.24674306624
48.571428571428584        1256.9822825056845
49.42857142857143         1262.7178219451291
50.28571428571429         1268.4533613845736
51.14285714285715         1273.565575348395
52.00000000000002         1278.6777893122164
52.85714285714288         1283.7900032760379
53.714285714285744        1288.2307652135778
54.57142857142859         1292.6715271511175
55.42857142857145         1297.1122890886572
56.28571428571431         1300.6247710451858
57.142857142857174        1304.137253001714
58.000000000000036        1307.6497349582423
58.8571428571429          1309.9953274370696
59.71428571428576         1312.3409199158966
60.571428571428626        1314.6865123947239
61.42857142857147         1316.2193326824192
62.28571428571432         1317.7521529701144
63.14285714285717         1319.2849732578095
64.00000000000003         1320.0695932446552
64.85714285714289         1320.8542132315006
65.71428571428575         1321.638833218346
66.57142857142861         1321.5822245166564
67.42857142857147         1321.5256158149666
68.28571428571432         1321.4690071132768
69.14285714285718         1320.4212691168777
70.00000000000003         1319.3735311204784
70.85714285714289         1318.3257931240792
71.71428571428577         1316.2992589519479
72.57142857142861         1314.2727247798164
73.42857142857146         1312.2461906076849
74.28571428571432         1309.9186302366402
75.14285714285718         1307.5910698655953
76.00000000000004         1305.2635094945504
76.8571428571429          1302.8018309273932
77.71428571428575         1300.340152360236
78.57142857142861         1297.878473793079
79.42857142857149         1295.310731299438
80.28571428571433         1292.7429888057968
81.1428571428572          1290.1752463121557
82.00000000000006         1287.420273361486
82.8571428571429          1284.665300410816
83.71428571428575         1281.910327460146
84.57142857142861         1278.8964309280088
85.42857142857146         1275.8825343958715
86.28571428571432         1272.8686378637344
87.1428571428572          1269.5848081427646
88.00000000000007         1266.3009784217945
88.85714285714293         1263.0171487008247
89.71428571428578         1259.596923955854
90.57142857142863         1256.176699210883
91.42857142857147         1252.756474465912
92.28571428571433         1249.212869335727
93.1428571428572          1245.669264205542
94.00000000000006         1242.125659075357
94.85714285714292         1238.4381720910555
95.71428571428578         1234.7506851067542
96.57142857142863         1231.0631981224528
97.42857142857149         1227.2749772203945
98.28571428571433         1223.486756318336
99.1428571428572          1219.6985354162773
100.00000000000006        1215.8291696098793
100.85714285714292        1211.9598038034812
101.71428571428577        1208.0904379970832
102.57142857142864        1204.25299859125
103.42857142857149        1200.4155591854167
104.28571428571435        1196.5781197795834