% Model:              Cav_Hex_Unif_flux_v5.1 - Base Case.mph
% Version:            COMSOL 5.5.0.359
% Date:               May 16 2022, 15:15
% Dimension:          3
% Nodes:              5541
% Expressions:        1
% Description:        Surface
% x                       y                        z                        Color
8                         8                        0                        0.07233216717095323
8.4                       8.4                      0                        0.06807733380795597
8.4                       5.824142950696388        0                        0.08607855188217516
-8                        8                        0                        0.0801872441487943
-8.400000000000004        5.8241429506963875       0                        0.09098797499332582
-8.4                      8.4                      0                        0.07724159028210391
-5.824142950696377        8.4                      0                        0.09720657760078336
8                         -8                       0                        0.07331405179318337
8.4                       -5.824142950696381       0                        0.08280560314140804
8.4                       -8.4                     0                        0.06873192355610941
5.824142950696385         -8.4                     0                        0.09884305197116691
5.824142950696385         8.4                      0                        0.0955701032303998
-8                        -8                       0                        0.07298675691910665
-8.4                      -8.4                     0                        0.07200487229687652
-8.4                      -5.824142950696387       0                        0.0877150262525587
-8                        -5.714285714285714       0                        0.08706043650440523
8                         -5.714285714285713       0                        0.07920535952656416
-5.714285714285714        8                        0                        0.08902420574886549
-8                        5.714285714285713        0                        0.08902420574886546
8                         5.714285714285714        0                        0.08902420574886549
7.999999999999998         -3.4285714285714284      0                        0.0990612485538848
8.4                       -3.009049604034738       0                        0.13091794963068484
7.999999999999998         3.428571428571428        0                        0.10386157337367656
8.4                       3.0090496040347148       0                        0.12306287265284373
7.999999999999998         1.1428571428571432       0                        0.11869894099848759
8.4                       -1.9567680809018384E-14  0                        0.14182777876657524
5.714285714285713         8                        0                        0.07920535952656416
3.4285714285714284        7.999999999999998        0                        0.1234992658182793
3.0090496040347188        8.400000000000002        0                        0.1435733514283177
1.142857142857142         7.999999999999998        0                        0.14531892409006011
5.551115123125783E-17     8.4                      0                        0.15535596689507922
-1.1428571428571426       8.000000000000002        0                        0.14706449675180247
-7.999999999999998        3.4285714285714284       0                        0.10909829135890396
-8.4                      3.0090496040347356       0                        0.12917237696894238
-3.0090496040347183       8.4                      0                        0.13920941977396142
-3.428571428571428        7.999999999999998        0                        0.11215304351695325
5.714285714285714         -8                       0                        0.08378748776363812
3.428571428571428         -7.999999999999998       0                        0.12568123164545736
3.0090496040347356        -8.4                     0                        0.15142842840615867
-5.824142950696392        -8.4                     0                        0.09426092373409296
-5.714285714285713        -8                       0                        0.080514539022871
-3.4285714285714284       -7.999999999999998       0                        0.11651697517130943
-3.0090496040347245       -8.400000000000002       0                        0.14226417193201088
-7.999999999999998        -3.428571428571428       0                        0.10517075286998338
-8.4                      -3.0090496040347268      0                        0.12960877013437788
-8.000000000000002        -1.1428571428571426      0                        0.14313695826288192
-8.4                      -8.965050923848139E-15   0                        0.1584107190531285
7.999999999999998         -1.142857142857142       0                        0.12524483848002185
-7.999999999999998        1.142857142857142        0                        0.13702745394678342
-1.142857142857142        -7.999999999999998       0                        0.13702745394678342
-5.551115123125783E-17    -8.4                     0                        0.15535596689507922
1.1428571428571426        -8.000000000000002       0                        0.14619171042093124
-8                        5.714285714285713        0                        0.10175516356542325
-8                        8                        0                        0.09264073425749009
-8                        6.399613512553145        1.709006963007598        0.09861456620129327
-8                        4.482995757972045        1.9744690261730424       0.11117045631698265
-7.999999999999998        3.4285714285714284       0                        0.1124417851956266
-8                        2.2857142857142847       2.1395157600494485       0.11618061147513518
-8                        8                        2.5641025641025665       0.11520262544206927
-8                        -5.714285714285714       0                        0.11247347052285944
-8                        -5.754801530403203       1.8820578931072252       0.12027617782534218
-8                        -8                       0                        0.12744987975597297
-8                        -8                       2.5641025641025665       0.15442309230208187
-7.999999999999998        -3.428571428571428       0                        0.11303656133588759
-8                        -3.9609101705761747      2.524278643727529        0.10102519464233
-7.999999999999998        1.142857142857142        0                        0.11648870138144891
-8.000000000000002        -1.1428571428571426      0                        0.11866436939283453
-8                        -2.1043988840981296      2.225593583014818        0.10167923269606151
-8                        0                        2.1395157600494485       0.11344412421266603
-7.999999999999998        7.999999999999998        5.128205128205133        0.15939430496995804
-8                        5.8007860869900565       4.006463218196776        0.13044297377190342
-8                        1.0269477883073517       4.034277380187001        0.1244360657176725
-8                        3.268663356429825        4.160269695150487        0.12458240967134411
-7.999999999999998        -7.999999999999998       5.128205128205133        0.16950502655646812
-8                        -5.4484138510570155      4.107507802736166        0.13934217669542795
-8                        -3.041207673239231       3.888516329869307        0.08406532705792834
-8                        -5.746647837406634       6.703549938355801        0.15753562684722278
-8                        -3.6408576312798684      5.745116325733803        0.11285359221821013
-8                        -8                       7.692307692307701        0.15304366582097448
-8                        4.191857806960444        5.720834870997327        0.12089673123594373
-8                        5.94189573375385         6.553042846969359        0.147656403879347
-8                        8                        7.692307692307701        0.162163665617694
-8                        -5.786728177056389       8.980454142114658        0.1589614963880505
-8                        -3.7122975175897484      7.883722758340506        0.13342464662929898
-8                        -1.0666328400541012      3.8460760166785235       0.0920805766288512
-8                        -1.9515480287373954      6.926208432567616        0.10445849770435219
-8                        -2.010239761225051       5.2158163145966          0.07858220142978131
-8                        1.962363115826589        6.3043447651149          0.13829357486588054
-8                        -0.3532909498000407      5.703356428415108        0.11466977483690928
-8                        -0.08063597291763759     7.893415661345959        0.13177322096248503
-8                        3.882628231042066        7.79608719775009         0.13777867687985154
-8                        -1.895738749287311       9.105278866375667        0.12133682864854918
-7.999999999999998        -7.999999999999998       10.256410256410268       0.15986265706896874
-8                        1.799033486682216        8.98930315195119         0.14678506000436153
-8                        3.5522045550610564       10.25641025641022        0.15628031589294464
-8                        5.776102277530525        8.974358974358987        0.16126903120138728
-7.999999999999998        7.999999999999998        10.256410256410268       0.17113109247324043
-8                        -0.08321872793017526     10.247747910984728       0.13534755834979967
-8                        1.7217323080633822       11.505753302241995       0.13825312656256325
-8                        -5.776102277530514       11.538461538461497       0.16401420728896823
-8                        -8                       12.820512820512837       0.1665453602847309
-8                        -3.7540090134038966      10.312804120893947       0.1449063070798814
-8                        -1.9204304450892735      11.511182428211475       0.14466246592660506
-8                        3.5522045550610244       12.82051282051282        0.16027166907409238
-8                        8                        12.820512820512837       0.17203082695791924
-8                        5.776102277530514        11.538461538461497       0.1779055749205899
-8.000000000000002        8.000000000000002        15.384615384615401       0.16337118078098314
-8                        5.776102277530524        14.10256410256412        0.17668202283773185
-8                        -5.776102277530524       14.10256410256412        0.16835592933777307
-8.000000000000002        -8.000000000000002       15.384615384615401       0.1691481116457503
-8                        -3.721562756843417       12.74242196360682        0.15823805700265411
-8                        -0.10906543442189731     12.747966585779945       0.14360772721186257
-8                        -1.9364541467296488      13.992417313189275       0.15963571496126225
-8                        1.7164563219627242       14.05512977703225        0.13630339333635846
-8                        3.552204555061049        15.384615384615397       0.1631350150668566
-8                        5.776102277530525        16.66666666666668        0.17413572946482037
-7.999999999999998        7.999999999999998        17.948717948717967       0.1514537607923488
-8                        -3.830218715012013       15.31543874986767        0.15668683530466188
-8                        -5.776102277530526       16.66666666666665        0.1581671721379431
-7.999999999999998        -7.999999999999998       17.948717948717967       0.1587807647463688
-8                        -0.11557740468984123     15.291572288592437       0.14374199750974645
-8                        -1.9567508865658196      16.55198051081075        0.14504810345903765
-8                        1.7161987618227972       16.61267166332867        0.14408158225651693
-8                        -0.11902771243354195     17.84529448682051        0.1363639262000034
-8                        1.7137574578770973       19.158821245964575       0.1463645668166113
-8                        3.5522045550610617       17.948717948717956       0.16080265853928077
-8                        5.776102277530526        19.230769230769205       0.1637789343575632
-8.000000000000002        8.000000000000002        20.51282051282054        0.15457653065012025
-8                        -3.82120332197573        17.85285757683457        0.1479571346878315
-8                        -5.776102277530526       19.230769230769205       0.15653399253284406
-8.000000000000002        -8.000000000000002       20.51282051282054        0.1504747180550735
-8                        -5.776102277530514       21.79487179487179        0.1452072195788722
-8                        -8                       23.0769230769231         0.139936530023934
-8                        -3.827588452737939       20.424864055639635       0.1447206918072719
-8                        -1.9592042811756973      19.11195645635906        0.1344468488003952
-8                        -0.11388093783221541     20.406358326216424       0.14291660458331923
-8                        8                        23.0769230769231         0.1583690498388895
-8                        5.776102277530514        21.79487179487179        0.16162555511287066
-8                        3.552204555061035        20.51282051282044        0.15333076398703124
-8                        1.7158245672928751       21.720907031230286       0.13772182462742694
-8                        -1.9683460160034083      21.690517329062086       0.13616730250588752
-8                        5.776102277530514        24.358974358974343       0.15551246338570848
-8                        8                        25.641025641025678       0.1581344360398826
-8                        3.5522045550610386       23.076923076923066       0.14712610610546598
-8                        -5.776102277530514       24.358974358974343       0.14085751967375462
-8                        -8                       25.641025641025678       0.145617568285484
-8                        -3.8409965569192366      22.996648971229906       0.1359334945418306
-8                        -3.8139511220927034      25.549798549576906       0.13438469676667564
-8                        -1.959910318603026       24.24589171098504        0.13176716191202398
-8                        -0.12141596161162171     22.979018696188547       0.13351999039817786
-8                        1.715814264512199        24.299276501019417       0.1316132054844158
-8                        -5.776102277530527       26.923076923076938       0.13437098119691723
-7.9999999999999964       -7.9999999999999964      28.205128205128236       0.14174766102733824
-8                        3.552204555061025        25.64102564102566        0.13985132673489784
-8                        5.776102277530525        26.923076923076962       0.1510967649234042
-7.9999999999999964       7.9999999999999964       28.205128205128236       0.13675653730569753
-8                        -0.11998395581493027     25.547111026387846       0.12573188179481065
-8                        -1.9554241446733513      26.798902917950866       0.12615251507157618
-8                        -3.8271474989923147      28.119639533375          0.11933509287504962
-8                        -5.776102277530523       29.48717948717951        0.12191647586023714
-7.999999999999998        -7.999999999999998       30.7692307692308         0.12954615962075916
-8                        1.7170846777242217       26.86446427355378        0.1260748540011089
-8                        -3.842326917971946       30.690255283764813       0.10827103532994008
-8                        3.5522045550610493       28.20512820512824        0.14040034058383863
-7.999999999999998        7.999999999999998        30.7692307692308         0.14370388447643667
-8                        5.776102277530525        29.487179487179517       0.14854515496644805
-8                        -1.9654201059302314      29.37418067478721        0.11767679716382463
-8                        -0.12251723506813804     28.111180961120823       0.11875163973767001
-8                        1.7127913733278994       29.417414145291467       0.1210648180576256
-8                        -5.776102277530526       32.05128205128205        0.11596751305662394
-8                        -8                       33.33333333333337        0.10803866474552815
-8                        3.5522045550610493       30.769230769230795       0.1322214527915045
-8                        5.776102277530525        32.05128205128208        0.1410830303651718
-8                        8                        33.33333333333337        0.129900170564934
-8                        -3.8141339310020586      33.24205790336337        0.11385381769168629
-8                        -1.9636733602205165      31.935109887738086       0.11151107511315156
-8                        -0.12415125504244351     30.665012728753503       0.12178382072438516
-8                        1.7147735591435378       31.98951543262321        0.12182582710047352
-8                        3.5522045550610444       33.33333333333336        0.12279331115498986
-8                        -0.11704197295649266     33.22043931956401        0.11621881390182476
-8                        -5.776102277530509       34.61538461538463        0.1149789229407701
-8                        -8                       35.89743589743594        0.0994282043047345
-8                        -3.824533647543424       35.80994279947316        0.11840758317124706
-8                        5.776102277530514        34.615384615384635       0.12037209950843726
-8                        8                        35.89743589743594        0.10574677039712116
-8                        1.7206450309432313       34.553326244526296       0.10911560984377722
-8                        -1.9566941303588108      34.498974464209375       0.1164613808295617
-8                        -5.776102277530525       37.179487179487225       0.10574717344501194
-8                        -8                       38.4615384615385         0.0975582699376366
-8                        -3.738004916084436       38.33846153846161        0.10442664288399105
-8                        -1.9332011136432339      37.056777890766206       0.10925326305122827
-8                        5.776102277530525        37.179487179487225       0.10018217723310407
-8                        8                        38.4615384615385         0.09260856829900631
-8                        5.776102277530519        39.74358974358978        0.09449591550543557
-8                        -5.776102277530519       39.74358974358978        0.10000873962950002
-8                        3.5522045550610333       35.89743589743595        0.11364175479074508
-8                        -0.10440329570126394     35.78182349600478        0.10451587889210777
-8                        1.7365953237776353       37.0988603242147         0.10721952392725577
-8                        -0.0740329054585831      38.3203691500474         0.09945150935466579
-8                        3.7130064962925395       38.42658851973195        0.10321390054659024
-8                        -8                       41.02564102564108        0.08979219494810185
-8                        8                        41.02564102564108        0.09749427817575797
-8                        -3.7380049160844404      40.90256410256416        0.09584313438882569
-8                        -1.901537786712888       39.591095896400894       0.09591370200087962
-8                        1.8004777585988716       39.63972468587092        0.10123610834211928
-8                        -0.061811597806911596    40.84401738971057        0.10050657812900188
-8                        3.7123812543917154       40.98967952667729        0.09535275703047814
-8                        5.776102277530526        42.30769230769238        0.09325692580033253
-8                        -5.776102277530525       42.30769230769238        0.0883262684469205
-8                        -8                       43.58974358974364        0.07946482945298605
-8                        -3.7380049160844377      43.46666666666679        0.08974072400113166
-8                        -1.8950863692344304      42.14912671713831        0.08877053234897402
-8                        8                        43.58974358974364        0.09095898384866402
-8                        5.776102277530519        44.87179487179493        0.08512379095744114
-8                        -5.776102277530519       44.87179487179493        0.08430267973536267
-8                        1.8051557205423947       42.20296932394816        0.10080156368777889
-8                        -0.05402429069179204     43.40742985944477        0.09497639699370881
-8                        3.6910011087671943       43.55849137630719        0.09416489293089965
-8                        -8                       46.1538461538462         0.0792101427944244
-8                        8                        46.1538461538462         0.08449333424628815
-8                        -3.7380049160844395      46.030769230769344       0.08582130725818576
-8                        -1.892821011268893       44.713063643202574       0.09146489146132393
-8                        1.8082720204042495       44.76626900854439        0.09355352649405753
-8                        -0.052158836996461844    45.97115385276016        0.09147332292770256
-8                        3.7136555732676797       46.11627723992249        0.08435383831946776
-8                        5.776102277530526        47.43589743589749        0.07967972087556136
-8                        -5.776102277530525       47.43589743589749        0.0807249819718104
-8                        -8                       48.71794871794877        0.08018822691845946
-8                        -3.738004916084439       48.5948717948719         0.07273007790664054
-8                        -1.8796467385217939      47.25323553243601        0.0826491580829412
-8                        8                        48.71794871794877        0.07433667734149256
-8                        5.776102277530514        50.00000000000004        0.07201061673078336
-8                        -5.776102277530513       50.000000000000064       0.07721458163332308
-8                        1.8073970888077842       47.329425234900604       0.0839281161618017
-8                        -0.052732904668664204    48.5350688391251         0.07549550636008008
-8                        3.745135709791313        48.67278774031427        0.07854250603273287
-8                        -8                       51.28205128205134        0.07463836608347535
-8                        8                        51.28205128205134        0.07267589785472738
-8                        -3.738004916084438       51.158974358974525       0.06882327143903379
-8                        -1.8796058291287763      49.81730633017889        0.07187218178245645
-8                        1.8188325682874993       49.89169049668779        0.07659916234032355
-8                        -0.049068507565419146    51.10604397053336        0.0738517205302369
-8                        3.7192109345474016       51.2440318130724         0.07073001625071564
-8                        5.776102277530525        52.56410256410264        0.06826215352820757
-8                        -5.776102277530525       52.56410256410264        0.07067033597016718
-8                        -8                       53.846153846153896       0.06654962502471735
-8                        -1.8822826937231445      52.387899162366594       0.07202850052876826
-8                        -3.7380049160844404      53.72307692307707        0.062475075548271336
-8                        8                        53.846153846153896       0.06769788913568779
-8                        5.776102277530519        55.128205128205195       0.06253650803244452
-8                        -5.776102277530519       55.128205128205195       0.0630517680424366
-8                        1.8163666973574344       52.45666126985513        0.06783418133546874
-8                        -0.04762510966065925     53.67222613577219        0.06502360041977338
-8                        3.719209493164947        53.80830630948126        0.06613873284531949
-8                        -8                       56.410256410256466       0.06282196266885276
-8                        8                        56.410256410256466       0.06101758252210456
-8                        -3.7380049160844417      56.28717948717963        0.06233378826602898
-8                        -1.8864013985029755      54.9630891066204         0.06334026130838373
-8                        1.8138408946511915       55.020280691438515       0.0591574282978889
-8                        -0.040378808697045354    56.258197748145754       0.05813567907699905
-8                        3.7185450841743712       56.37222818744425        0.059846143230141445
-8                        5.776102277530526        57.69230769230775        0.056172855551642704
-8                        -5.776102277530525       57.69230769230778        0.0602228110260698
-8                        -8                       58.97435897435903        0.05482031472316034
-8                        -1.8843285166570252      57.51542157901107        0.05976986817574662
-8                        -3.7380049160844417      58.85128205128218        0.052182793379252905
-8                        8                        58.97435897435903        0.05198292765688171
-8                        5.776102277530525        60.256410256410334       0.04944424058841342
-8                        -5.776102277530525       60.256410256410334       0.05240875256164023
-8                        1.8245352842721374       57.58665976833659        0.05304710343852862
-8                        -0.03840753766844829     58.826135885578125       0.056032970781915575
-8                        3.7180422825573203       58.93618978380886        0.0503218590448718
-8                        -8                       61.5384615384616         0.04900228136314966
-8                        8                        61.5384615384616         0.046783618656639846
-8                        -3.7380049160844404      61.41538461538476        0.05089070453283664
-8                        -1.8873040674358725      60.08268175134639        0.05124832452434252
-8                        1.8105366989972946       60.14772975529965        0.05055622082501506
-8                        -0.053505816490180276    61.36612471132928        0.0471388161785112
-8                        3.717773350464043        61.500369270247674       0.050054011902146096
-8                        5.776102277530519        62.82051282051292        0.04773663181778063
-8                        -5.776102277530519       62.82051282051292        0.052589153565147866
-8                        -8                       64.10256410256417        0.047732158928437324
-8                        -1.882404422309085       62.6365289117421         0.04935999642797051
-8                        -3.7380049160844364      63.979487179487315       0.05013137541410046
-8                        8                        64.10256410256417        0.03911505963395632
-8                        5.776102277530514        65.38461538461546        0.04292444448106438
-8                        -5.776102277530514       65.38461538461546        0.04681584527727981
-8                        1.8115140867146753       62.71351559729347        0.04706996478564044
-8                        -0.04657919364945373     63.9354389574244         0.044912217076172545
-8                        3.7151263087981583       64.06483214538041        0.047951173017913
-8                        -8                       66.66666666666673        0.0430002847609933
-8                        8                        66.66666666666673        0.04082525846889123
-8                        -3.7380049160844364      66.5435897435899         0.03987078299943897
-8                        -1.8794389840534655      65.2095196074543         0.04707645006795408
-8                        1.8125170056119124       65.27845774696345        0.04219149944093001
-8                        -0.04212431538076622     66.48550378611553        0.0410857876133752
-8                        3.693058412433663        66.63337299282763        0.04232087579025021
-8                        5.7761022775305255       67.94871794871804        0.04035601119929388
-8                        -5.776102277530525       67.94871794871804        0.03650604577401822
-8                        -8                       69.2307692307693         0.037436168847745366
-8                        -1.8683100900738228      67.76112617175414        0.03719194554464369
-8                        -3.7380049160844373      69.10769230769247        0.034170342643876084
-8                        8                        69.2307692307693         0.04113953357131389
-8                        5.776102277530514        70.51282051282061        0.03945191726312784
-8                        -5.776102277530514       70.51282051282061        0.03848754933845916
-8                        1.8200252330299218       67.83681060341897        0.03850495687545432
-8                        -0.012894125852987774    69.04553646876262        0.03701966738047454
-8                        3.717367602065906        69.19104076292797        0.03737624381433939
-8                        1.8288500182007825       70.39477500219127        0.03761180642461748