% Model:              Cav_Hex_Unif_flux_v5.1 - Base Case.mph
% Version:            COMSOL 5.5.0.359
% Date:               May 16 2022, 15:15
% Dimension:          3
% Nodes:              5540
% Expressions:        1
% Description:        Surface
% x                       y                        z                        Color
8                         8                        0                        0.12055361195158865
8.4                       8.4                      0                        0.1134622230132599
8.4                       5.824142950696388        0                        0.14346425313695851
-8                        8                        0                        0.13364540691465712
-8.400000000000004        5.8241429506963875       0                        0.1516466249888763
-8.4                      8.4                      0                        0.12873598380350648
-5.824142950696377        8.4                      0                        0.16201096266797219
8                         -8                       0                        0.1221900863219722
8.4                       -5.824142950696381       0                        0.13800933856901335
8.4                       -8.4                     0                        0.11455320592684895
5.824142950696385         -8.4                     0                        0.16473841995194477
5.824142950696385         8.4                      0                        0.15928350538399957
-8                        -8                       0                        0.1216445948651777
-8.4                      -8.4                     0                        0.12000812049479415
-8.4                      -5.824142950696387       0                        0.14619171042093113
-8                        -5.714285714285714       0                        0.145100727507342
8                         -5.714285714285713       0                        0.1320089325442735
-5.714285714285714        8                        0                        0.1483736762481091
-8                        5.714285714285713        0                        0.14837367624810904
8                         5.714285714285714        0                        0.14837367624810907
7.999999999999998         -3.4285714285714284      0                        0.16510208092314127
8.4                       -3.009049604034738       0                        0.21819658271780795
7.999999999999998         3.428571428571428        0                        0.17310262228946086
8.4                       3.0090496040347148       0                        0.20510478775473948
7.999999999999998         1.1428571428571432       0                        0.19783156833081258
8.4                       -1.9567680809018384E-14  0                        0.23637963127762526
5.714285714285713         8                        0                        0.1320089325442735
3.4285714285714284        7.999999999999998        0                        0.20583210969713206
3.0090496040347188        8.400000000000002        0                        0.23928891904719607
1.142857142857142         7.999999999999998        0                        0.2421982068167667
5.551115123125783E-17     8.4                      0                        0.25892661149179846
-1.1428571428571426       8.000000000000002        0                        0.24510749458633727
-7.999999999999998        3.4285714285714284       0                        0.18183048559817316
-8.4                      3.0090496040347356       0                        0.21528729494823726
-3.0090496040347183       8.4                      0                        0.23201569962326887
-3.428571428571428        7.999999999999998        0                        0.18692173919492197
5.714285714285714         -8                       0                        0.1396458129393968
3.428571428571428         -7.999999999999998       0                        0.20946871940909548
3.0090496040347356        -8.4                     0                        0.25238071401026435
-5.824142950696392        -8.4                     0                        0.15710153955682152
-5.714285714285713        -8                       0                        0.1341908983714516
-3.4285714285714284       -7.999999999999998       0                        0.19419495861884895
-3.0090496040347245       -8.400000000000002       0                        0.23710695322001796
-7.999999999999998        -3.428571428571428       0                        0.1752845881166389
-8.4                      -3.0090496040347268      0                        0.2160146168906297
-8.000000000000002        -1.1428571428571426      0                        0.23856159710480307
-8.4                      -8.965050923848139E-15   0                        0.26401786508854735
7.999999999999998         -1.142857142857142       0                        0.20874139746670295
-7.999999999999998        1.142857142857142        0                        0.2283790899113056
-1.142857142857142        -7.999999999999998       0                        0.22837908991130554
-5.551115123125783E-17    -8.4                     0                        0.2589266114917985
1.1428571428571426        -8.000000000000002       0                        0.24365285070155193
-8                        5.714285714285713        0                        0.12843672469858802
-8                        8                        0                        0.11025698522242242
-8                        6.399613512553145        1.709006963007598        0.11823078968184504
-8                        4.482995757972045        1.9744690261730424       0.135158407413681
-7.999999999999998        3.4285714285714284       0                        0.1423175899520812
-8                        2.2857142857142847       2.1395157600494485       0.1431484750583593
-8                        8                        2.5641025641025665       0.13410676785344067
-8                        -5.714285714285714       0                        0.14427106236311132
-8                        -5.754801530403203       1.8820578931072252       0.14506955169715685
-8                        -8                       0                        0.15194418240692303
-8                        -8                       2.5641025641025665       0.17872123435056064
-7.999999999999998        -3.428571428571428       0                        0.1407439872606909
-8                        -3.9609101705761747      2.524278643727529        0.12160663598949317
-7.999999999999998        1.142857142857142        0                        0.14785267888592615
-8.000000000000002        -1.1428571428571426      0                        0.1471702282756496
-8                        -2.1043988840981296      2.225593583014818        0.12274963233460469
-8                        0                        2.1395157600494485       0.13960024537791846
-7.999999999999998        7.999999999999998        5.128205128205133        0.18138955192483128
-8                        5.8007860869900565       4.006463218196776        0.15463129077785148
-8                        1.0269477883073517       4.034277380187001        0.1501185218833946
-8                        3.268663356429825        4.160269695150487        0.1490053593392777
-7.999999999999998        -7.999999999999998       5.128205128205133        0.19255265204867966
-8                        -5.4484138510570155      4.107507802736166        0.1622562192443643
-8                        -3.041207673239231       3.888516329869307        0.09840607638342506
-8                        -5.746647837406634       6.703549938355801        0.17955324273360992
-8                        -3.6408576312798684      5.745116325733803        0.13096113780880905
-8                        -8                       7.692307692307701        0.16917799610281792
-8                        4.191857806960444        5.720834870997327        0.14262029964948578
-8                        5.94189573375385         6.553042846969359        0.16976609285156705
-8                        8                        7.692307692307701        0.18083367286467858
-8                        -5.786728177056389       8.980454142114658        0.17659259421936505
-8                        -3.7122975175897484      7.883722758340506        0.151951611840209
-8                        -1.0666328400541012      3.8460760166785235       0.10925745459330978
-8                        -1.9515480287373954      6.926208432567616        0.12201510422594002
-8                        -2.010239761225051       5.2158163145966          0.09387560359633053
-8                        1.962363115826589        6.3043447651149          0.16127415326396916
-8                        -0.3532909498000407      5.703356428415108        0.1377514270359687
-8                        -0.08063597291763759     7.893415661345959        0.15109588200888083
-8                        3.882628231042066        7.79608719775009         0.1584317105613132
-8                        -1.895738749287311       9.105278866375667        0.13553861205009826
-7.999999999999998        -7.999999999999998       10.256410256410268       0.16800050812158632
-8                        1.799033486682216        8.98930315195119         0.16273944161480988
-8                        3.5522045550610564       10.25641025641022        0.1749634612971489
-8                        5.776102277530525        8.974358974358987        0.1819093914046954
-7.999999999999998        7.999999999999998        10.256410256410268       0.19065675581172056
-8                        -0.08321872793017526     10.247747910984728       0.1491876464273514
-8                        1.7217323080633822       11.505753302241995       0.15006429948864605
-8                        -5.776102277530514       11.538461538461497       0.17541202102300157
-8                        -8                       12.820512820512837       0.17567019869389225
-8                        -3.7540090134038966      10.312804120893947       0.15919613742113012
-8                        -1.9204304450892735      11.511182428211475       0.15947576667299032
-8                        3.5522045550610244       12.82051282051282        0.1757562791743386
-8                        8                        12.820512820512837       0.18762389522038445
-8                        5.776102277530514        11.538461538461497       0.1983851492921722
-8.000000000000002        8.000000000000002        15.384615384615401       0.16791599957617584
-8                        5.776102277530524        14.10256410256412        0.19045093849052486
-8                        -5.776102277530524       14.10256410256412        0.18516182060036743
-8.000000000000002        -8.000000000000002       15.384615384615401       0.1785724795175223
-8                        -3.721562756843417       12.74242196360682        0.1763486838151712
-8                        -0.10906543442189731     12.747966585779945       0.15767017159022714
-8                        -1.9364541467296488      13.992417313189275       0.18003012426574094
-8                        1.7164563219627242       14.05512977703225        0.14495024169247642
-8                        3.552204555061049        15.384615384615397       0.17884019180784208
-8                        5.776102277530525        16.66666666666668        0.18717090008864734
-7.999999999999998        7.999999999999998        17.948717948717967       0.14954775227194825
-8                        -3.830218715012013       15.31543874986767        0.1772280831458152
-8                        -5.776102277530526       16.66666666666665        0.17120104356804014
-7.999999999999998        -7.999999999999998       17.948717948717967       0.1639019930593617
-8                        -0.11557740468984123     15.291572288592437       0.1578728747373115
-8                        -1.9567508865658196      16.55198051081075        0.1590171290704719
-8                        1.7161987618227972       16.61267166332867        0.1570719661152891
-8                        -0.11902771243354195     17.84529448682051        0.14270161398543177
-8                        1.7137574578770973       19.158821245964575       0.15677066951530091
-8                        3.5522045550610617       17.948717948717956       0.17960167320778275
-8                        5.776102277530526        19.230769230769205       0.1739889903731393
-8.000000000000002        8.000000000000002        20.51282051282054        0.15588632940488298
-8                        -3.82120332197573        17.85285757683457        0.1604372186173105
-8                        -5.776102277530526       19.230769230769205       0.16622690960089923
-8.000000000000002        -8.000000000000002       20.51282051282054        0.1572711617515924
-8                        -5.776102277530514       21.79487179487179        0.15369363011666712
-8                        -8                       23.0769230769231         0.14294102454608235
-8                        -3.827588452737939       20.424864055639635       0.15516987770105936
-8                        -1.9592042811756973      19.11195645635906        0.13911043215487898
-8                        -0.11388093783221541     20.406358326216424       0.1469024085325589
-8                        8                        23.0769230769231         0.1620022481393196
-8                        5.776102277530514        21.79487179487179        0.17116933360990824
-8                        3.552204555061035        20.51282051282044        0.1663278195770958
-8                        1.7158245672928751       21.720907031230286       0.143333666367942
-8                        -1.9683460160034083      21.690517329062086       0.14112221239857278
-8                        5.776102277530514        24.358974358974343       0.15994603764605309
-8                        8                        25.641025641025678       0.16244010641670423
-8                        3.5522045550610386       23.076923076923066       0.15702005743612898
-8                        -5.776102277530514       24.358974358974343       0.14706507698755344
-8                        -8                       25.641025641025678       0.14725323981955205
-8                        -3.8409965569192366      22.996648971229906       0.14601532864810549
-8                        -3.8139511220927034      25.549798549576906       0.1443605996266758
-8                        -1.959910318603026       24.24589171098504        0.13743786982363623
-8                        -0.12141596161162171     22.979018696188547       0.13548804170295067
-8                        1.715814264512199        24.299276501019417       0.13876111967533225
-8                        -5.776102277530527       26.923076923076938       0.13689220474301875
-7.9999999999999964       -7.9999999999999964      28.205128205128236       0.13857259230646185
-8                        3.552204555061025        25.64102564102566        0.14787864469712855
-8                        5.776102277530525        26.923076923076962       0.15664953467154238
-7.9999999999999964       7.9999999999999964       28.205128205128236       0.1377851415675685
-8                        -0.11998395581493027     25.547111026387846       0.12986680196125713
-8                        -1.9554241446733513      26.798902917950866       0.13418194005414302
-8                        -3.8271474989923147      28.119639533375          0.12309680468919448
-8                        -5.776102277530523       29.48717948717951        0.12016255552819755
-7.999999999999998        -7.999999999999998       30.7692307692308         0.1305667998111715
-8                        1.7170846777242217       26.86446427355378        0.1340982613048857
-8                        -3.842326917971946       30.690255283764813       0.1082268317524739
-8                        3.5522045550610493       28.20512820512824        0.14947434932184445
-7.999999999999998        7.999999999999998        30.7692307692308         0.14546025667049026
-8                        5.776102277530525        29.487179487179517       0.15601358230116616
-8                        -1.9654201059302314      29.37418067478721        0.12507224130498898
-8                        -0.12251723506813804     28.111180961120823       0.12556324225803797
-8                        1.7127913733278994       29.417414145291467       0.13068920321362978
-8                        -5.776102277530526       32.05128205128205        0.11641665918963068
-8                        -8                       33.33333333333337        0.10663593914127216
-8                        3.5522045550610493       30.769230769230795       0.1413418677877253
-8                        5.776102277530525        32.05128205128208        0.1496874044046214
-8                        8                        33.33333333333337        0.13419094163651402
-8                        -3.8141339310020586      33.24205790336337        0.1220201115960589
-8                        -1.9636733602205165      31.935109887738086       0.12059115572977815
-8                        -0.12415125504244351     30.665012728753503       0.13296984279743918
-8                        1.7147735591435378       31.98951543262321        0.13231984555763512
-8                        3.5522045550610444       33.33333333333336        0.13048677506847317
-8                        -0.11704197295649266     33.22043931956401        0.1273464613592872
-8                        -5.776102277530509       34.61538461538463        0.11844665131243448
-8                        -8                       35.89743589743594        0.09532982113627643
-8                        -3.824533647543424       35.80994279947316        0.13019157684269475
-8                        5.776102277530514        34.615384615384635       0.12498614766728194
-8                        8                        35.89743589743594        0.10339287825681641
-8                        1.7206450309432313       34.553326244526296       0.11719289894778327
-8                        -1.9566941303588108      34.498974464209375       0.12967339606100695
-8                        -5.776102277530525       37.179487179487225       0.10581192914618211
-8                        -8                       38.4615384615385         0.09147721389460765
-8                        -3.738004916084436       38.33846153846161        0.11268340917084384
-8                        -1.9332011136432339      37.056777890766206       0.11942856193055097
-8                        5.776102277530525        37.179487179487225       0.09703412616571779
-8                        8                        38.4615384615385         0.08594778626111266
-8                        5.776102277530519        39.74358974358978        0.09184237479762054
-8                        -5.776102277530519       39.74358974358978        0.09948880103486117
-8                        3.5522045550610333       35.89743589743595        0.12041275367524346
-8                        -0.10440329570126394     35.78182349600478        0.11134179252521154
-8                        1.7365953237776353       37.0988603242147         0.11757315107876969
-8                        -0.0740329054585831      38.3203691500474         0.10702616036308628
-8                        3.7130064962925395       38.42658851973195        0.10914437742376022
-8                        -8                       41.02564102564108        0.08788815932911682
-8                        8                        41.02564102564108        0.09405822725884526
-8                        -3.7380049160844404      40.90256410256416        0.10268733630669673
-8                        -1.901537786712888       39.591095896400894       0.10734574954962516
-8                        1.8004777585988716       39.63972468587092        0.11049473452781992
-8                        -0.061811597806911596    40.84401738971057        0.11064955838592234
-8                        3.7123812543917154       40.98967952667729        0.09846646637973483
-8                        5.776102277530526        42.30769230769238        0.09238968816657146
-8                        -5.776102277530525       42.30769230769238        0.08834128705223032
-8                        -8                       43.58974358974364        0.07759618374589859
-8                        -3.7380049160844377      43.46666666666679        0.09360379284847652
-8                        -1.8950863692344304      42.14912671713831        0.09543594251361427
-8                        8                        43.58974358974364        0.09072135219899735
-8                        5.776102277530519        44.87179487179493        0.08592976345802077
-8                        -5.776102277530519       44.87179487179493        0.08414346252307747
-8                        1.8051557205423947       42.20296932394816        0.11018975328783127
-8                        -0.05402429069179204     43.40742985944477        0.10304526357332004
-8                        3.6910011087671943       43.55849137630719        0.09951846276023278
-8                        -8                       46.1538461538462         0.0768941588595279
-8                        8                        46.1538461538462         0.08426258760538108
-8                        -3.7380049160844395      46.030769230769344       0.09029098961536358
-8                        -1.892821011268893       44.713063643202574       0.09954925703423463
-8                        1.8082720204042495       44.76626900854439        0.10470733137678341
-8                        -0.052158836996461844    45.97115385276016        0.10277891336297477
-8                        3.7136555732676797       46.11627723992249        0.08973231274332132
-8                        5.776102277530526        47.43589743589749        0.07878691827107744
-8                        -5.776102277530525       47.43589743589749        0.08118715148307758
-8                        -8                       48.71794871794877        0.07729654821759606
-8                        -3.738004916084439       48.5948717948719         0.0756707259613709
-8                        -1.8796467385217939      47.25323553243601        0.09170362778479413
-8                        8                        48.71794871794877        0.06956155800728962
-8                        5.776102277530514        50.00000000000004        0.0702389392462937
-8                        -5.776102277530513       50.000000000000064       0.07743451241674564
-8                        1.8073970888077842       47.329425234900604       0.09129319522726521
-8                        -0.052732904668664204    48.5350688391251         0.0806970884075535
-8                        3.745135709791313        48.67278774031427        0.08079103250276974
-8                        -8                       51.28205128205134        0.0723331092611859
-8                        8                        51.28205128205134        0.06801502762673935
-8                        -3.738004916084438       51.158974358974525       0.0699697632648791
-8                        -1.8796058291287763      49.81730633017889        0.07635754918249889
-8                        1.8188325682874993       49.89169049668779        0.08006287239868765
-8                        -0.049068507565419146    51.10604397053336        0.07939166753862244
-8                        3.7192109345474016       51.2440318130724         0.07401467448754533
-8                        5.776102277530525        52.56410256410264        0.06749096467693681
-8                        -5.776102277530525       52.56410256410264        0.07121243540584439
-8                        -8                       53.846153846153896       0.06702373463517707
-8                        -1.8822826937231445      52.387899162366594       0.07675343148925913
-8                        -3.7380049160844404      53.72307692307707        0.0646103464869302
-8                        8                        53.846153846153896       0.06279322254931165
-8                        5.776102277530519        55.128205128205195       0.06359718705425461
-8                        -5.776102277530519       55.128205128205195       0.06272601838152665
-8                        1.8163666973574344       52.45666126985513        0.07135527920526562
-8                        -0.04762510966065925     53.67222613577219        0.06753449555077179
-8                        3.719209493164947        53.80830630948126        0.06945796767268489
-8                        -8                       56.410256410256466       0.06117659117094374
-8                        8                        56.410256410256466       0.05909341695217294
-8                        -3.7380049160844417      56.28717948717963        0.06663791070220684
-8                        -1.8864013985029755      54.9630891066204         0.06661974644772141
-8                        1.8138408946511915       55.020280691438515       0.059506335944822554
-8                        -0.040378808697045354    56.258197748145754       0.060535567128941724
-8                        3.7185450841743712       56.37222818744425        0.061559801621023945
-8                        5.776102277530526        57.69230769230775        0.055352105095375664
-8                        -5.776102277530525       57.69230769230778        0.05914395910712527
-8                        -8                       58.97435897435903        0.05319891157519022
-8                        -1.8843285166570252      57.51542157901107        0.06410611862286508
-8                        -3.7380049160844417      58.85128205128218        0.05149887588591984
-8                        8                        58.97435897435903        0.04938896849717437
-8                        5.776102277530525        60.256410256410334       0.04641511337679676
-8                        -5.776102277530525       60.256410256410334       0.051689750286888526
-8                        1.8245352842721374       57.58665976833659        0.05337409824007771
-8                        -0.03840753766844829     58.826135885578125       0.0593526771600128
-8                        3.7180422825573203       58.93618978380886        0.04850686205466384
-8                        -8                       61.5384615384616         0.047017189000038546
-8                        8                        61.5384615384616         0.04396338321971169
-8                        -3.7380049160844404      61.41538461538476        0.05284113253367385
-8                        -1.8873040674358725      60.08268175134639        0.05279749828213384
-8                        1.8105366989972946       60.14772975529965        0.05053835864902683
-8                        -0.053505816490180276    61.36612471132928        0.04599019975249874
-8                        3.717773350464043        61.500369270247674       0.04895377783819752
-8                        5.776102277530519        62.82051282051292        0.04476934993680587
-8                        -5.776102277530519       62.82051282051292        0.05338218682883749
-8                        -8                       64.10256410256417        0.0450013623675326
-8                        -1.882404422309085       62.6365289117421         0.05171309820415875
-8                        -3.7380049160844364      63.979487179487315       0.05205974968186094
-8                        8                        64.10256410256417        0.03534823142465943
-8                        5.776102277530514        65.38461538461546        0.04118044441062235
-8                        -5.776102277530514       65.38461538461546        0.04632913463752635
-8                        1.8115140867146753       62.71351559729347        0.045981394835414295
-8                        -0.04657919364945373     63.9354389574244         0.04505577619284207
-8                        3.7151263087981583       64.06483214538041        0.04840748429786621
-8                        -8                       66.66666666666673        0.04009538290391519
-8                        8                        66.66666666666673        0.03955887830072912
-8                        -3.7380049160844364      66.5435897435899         0.03894285902630471
-8                        -1.8794389840534655      65.2095196074543         0.04874598050095464
-8                        1.8125170056119124       65.27845774696345        0.04224121537009712
-8                        -0.04212431538076622     66.48550378611553        0.04160003369565477
-8                        3.693058412433663        66.63337299282763        0.04274513798895876
-8                        5.7761022775305255       67.94871794871804        0.039654166696276597
-8                        -5.776102277530525       67.94871794871804        0.03444669436432422
-8                        -8                       69.2307692307693         0.035455130629543745
-8                        -1.8683100900738228      67.76112617175414        0.03625763336373957
-8                        -3.7380049160844373      69.10769230769247        0.03171653919021846
-8                        8                        69.2307692307693         0.04051635138745061
-8                        5.776102277530514        70.51282051282061        0.039160954781485104
-8                        -5.776102277530514       70.51282051282061        0.03814780547314024
-8                        1.8200252330299218       67.83681060341897        0.03719469767996608