% Model:              Cav_Hex_Unif_flux_v5.1 - Base Case.mph
% Version:            COMSOL 5.5.0.359
% Date:               May 16 2022, 15:14
% Dimension:          3
% Nodes:              2608
% Expressions:        1
% Description:        Surface
% x                       y                        z                        Color
0.9000000000000004        -0.5893296300533294      0                        0.008291470143276676
0.9000000000000002        -0.9000000000000002      0                        0.011128025718608173
0.6758991604291763        -0.6818947890086712      0                        0.010909829135890363
0.589329630053329         -0.9000000000000002      0                        0.009164256474147904
0.6937841581024305        0.7221794273696616       0                        0.009949764171932008
0.9000000000000002        0.9000000000000002       0                        0.011782615466761587
0.9000000000000002        0.589329630053329        0                        0.007855076977841059
0.589329630053331         0.9000000000000001       0                        0.01265540179763282
0.6429787372946103        0.5668337503964518       0                        0.007855076977841059
0.6871830740220647        -0.42942039362872        0                        0.006764094064252023
0.9000000000000002        -0.2923547744504526      0                        0.00872786330871229
0.5                       -0.5                     0                        0.009491551348224613
0.6969657101081116        0.3876445799798537       0                        0.009818846222301322
0.9000000000000002        0.29235477445045255      0                        0.011346222301325972
0.5                       0.5                      0                        0.0058913077333807955
0.6836792529949159        0.09923472482597129      0                        0.011034512897443392
0.9000000000000002        -2.3245294578089215E-16  0                        0.011346222301325976
0.6945998561946013        -0.17331312739205074     0                        0.009818846222301324
0.3923107138266483        -0.7013359050164196      0                        0.010691632553172554
0.29235477445045255       -0.9000000000000002      0                        0.011346222301325976
0.4597144096173516        0.6875023040137753       0                        0.008977230831818355
0.292354774450452         0.9000000000000001       0                        0.012219008632197206
0.5                       -0.29999999999999993     0                        0.008291470143276672
0.3                       -0.5000000000000001      0                        0.010037042805019132
0.29999999999999993       0.5                      0                        0.010473435970454746
0.5                       -0.09999999999999996     0                        0.007855076977841059
0.5000000000000001        0.09999999999999994      0                        0.007200487229687639
0.5000000000000001        0.3                      0                        0.012219008632197206
0.10000898552300573       -0.6845725445214315      0                        0.010847487255113844
-2.3245294578089215E-16   -0.9000000000000002      0                        0.011782615466761591
0.16768209247720045       0.6945441599626757       0                        0.011346222301325976
-3.365363543395006E-16    0.9000000000000001       0                        0.011782615466761591
0.09999999999999994       -0.5000000000000001      0                        0.010473435970454744
0.09999999999999996       0.5                      0                        0.01178261546676159
-0.1733535788632017       -0.6969593991919008      0                        0.007636880395123252
-0.2923547744504526       -0.9000000000000002      0                        0.008291470143276672
-0.09999999999999996      -0.5                     0                        0.008727863308712289
-0.4174703328164362       -0.6911283763392955      0                        0.00938245305686571
-0.5893296300533294       -0.9000000000000004      0                        0.01265540179763282
-0.29999999999999993      -0.5                     0                        0.008727863308712289
-0.10668630969886467      0.6790653003497988       0                        0.008790205189488805
-0.2923547744504523       0.9000000000000002       0                        0.010909829135890363
-0.09999999999999994      0.5000000000000001       0                        0.007200487229687635
-0.6807002337862077       -0.6803399008622184      0                        0.013528188128504046
-0.9000000000000002       -0.9000000000000002      0                        0.014400974459375278
-0.9000000000000002       -0.5893296300533319      0                        0.01440097445937528
-0.5                      -0.5                     0                        0.010473435970454748
-0.3902264008543796       0.6980992942694024       0                        0.00850966672599448
-0.5893296300533308       0.9000000000000004       0                        0.008727863308712292
-0.9000000000000001       0.5893296300533301       0                        0.011782615466761591
-0.9000000000000002       0.9000000000000002       0                        0.008509666725994486
-0.675539068992048        0.6848230808494363       0                        0.009600649639583517
-0.3                      0.5000000000000001       0                        0.00698229064696983
-0.7056647616171544       -0.4012391688479755      0                        0.01265540179763282
-0.9000000000000002       -0.2923547744504521      0                        0.012655401797632823
-0.5000000000000001       -0.3                     0                        0.009164256474147899
-0.6935814078214282       0.4176015287053222       0                        0.01156441888404378
-0.9000000000000002       0.2923547744504526       0                        0.009600649639583519
-0.5                      0.5                      0                        0.012109910340838298
-0.681626811212718        -0.100781543403762       0                        0.011782615466761586
-0.9000000000000002       4.683753385137379E-16    0                        0.01265540179763282
-0.696451866858304        0.1697357326540282       0                        0.01069163255317255
-0.5000000000000001       -0.09999999999999994     0                        0.007855076977841057
-0.5                      0.29999999999999993      0                        0.01309179496306843
-0.5                      0.09999999999999996      0                        0.010473435970454742
-0.5000000000000001       -0.3                     25.000000000000004       0
-0.5                      -0.3059293051210753      24.871113759064436       4.130055956429386E-34
-0.5000000000000001       -0.09999999999999994     25.000000000000004       0
-0.5                      -0.5                     25                       2.037309481862815E-34
-0.5                      0.09999999999999996      25                       0
-0.5                      0.0012474629403731452    24.824478615266376       6.868901794051567E-33
-0.5                      -0.15247293615605728     24.80153289283518        8.24268215286188E-33
-0.5                      -0.07376939027217244     24.658634479534943       6.868901794051567E-33
-0.5                      0.29999999999999993      25                       0
-0.5                      0.3040220343766734       24.871348772487053       0
-0.5                      0.5                      25                       0
-0.5                      0.15346998629840036      24.803901844764784       0
-0.5                      0.08319120199263164      24.686534954738836       0
-0.5                      -0.5                     24.77064220183486        4.130055956429386E-34
-0.5                      -0.283114873984196       24.65511266611272        1.1589324326980344E-23
-0.5                      0.5                      24.77064220183486        0
-0.5                      0.27066221996164047      24.653548588322643       0
-0.5                      0.5                      24.541284403669728       5.656835990178574E-34
-0.5                      0.06434573103491703      24.492111245805432       2.220297025386146E-27
-0.5                      -0.1425296649837543      24.51419726241842        9.02161213740133E-16
-0.5                      -0.3071028528123615      24.42838417652497        7.518010249709893E-16
-0.5                      -0.5                     24.541284403669728       1.3520878381199883E-23
-0.5                      -0.5                     24.31192660550459        3.365761879085232E-33
-0.5                      -0.11300702634461765     24.336745133343392       7.520067699694348E-16
-0.5                      -0.30396555156160077     24.21103898810095        2.05758519323956E-19
-0.5                      0.5                      24.31192660550459        2.4275850837092907E-13
-0.5                      0.2886176771805674       24.411539039725046       2.59034652961717E-27
-0.5                      -0.10379158765201787     24.12406149031004        2.0575851932395343E-19
-0.5                      0.08845885869414172      24.26570758672937        2.59179335695783E-27
-0.5                      0.29647374785642233      24.18224435843907        7.75940437715298E-14
-0.5                      0.09811461008957889      24.047544252753248       1.4468273406601723E-30
-0.5                      0.5                      24.082568807339452       2.4275892828627463E-13
-0.5                      -0.5                     24.082568807339452       1.8432527952148953E-33
-0.5                      -0.1003613062873503      23.898497762368613       8.081196036466448E-34
-0.5                      -0.300522748359758       23.985536698837844       3.1259876330770725E-32
-0.5                      -0.5                     23.853211009174313       6.280186159164691E-28
-0.5                      -0.3001614484438031      23.75676337938257        6.219708102653834E-28
-0.5                      -0.10006021771455875     23.66962730290241        6.878986447288677E-13
-0.5                      -0.30010126895762        23.52750108258405        2.262217019578152E-13
-0.5                      0.09982159268566172      23.819733686342378       4.616769427710526E-13
-0.5                      0.5                      23.853211009174313       4.200302711290593E-19
-0.5                      0.30044589770329         23.967889908256883       1.1492556996829415E-22
-0.5                      0.10016630749956734      23.590731227876073       4.616769427710526E-13
-0.5                      0.30044589770329         23.738532110091743       1.1492738321086487E-22
-0.5                      -0.3000914620421111      23.29814773080317        1.5090409163087697E-30
-0.5                      -0.1000100362857603      23.440350727853758       2.262217019578152E-13
-0.5                      -0.10000167271429358     23.211006466874704       7.586205233014217E-38
-0.5                      0.10023379625431172      23.36144889761737        1.0740014725538118E-15
-0.5                      0.30044589770329105      23.5091743119266         2.7610859613923624E-23
-0.5                      0.10024671709439581      23.132106384873858       1.0740015013051605E-15
-0.5                      0.30044589770329155      23.279816513761464       1.0740098319972204E-15
-0.5                      0.5                      23.394495412844034       1.4115315542210404E-20
-0.5                      0.5                      23.62385321100917        2.801416540258599E-26
-0.5                      -0.5                     23.394495412844034       9.73623392834364E-30
-0.5                      -0.5                     23.62385321100917        3.350606058954171E-22
-0.5                      -0.5                     23.165137614678898       2.2117236539356185E-37
-0.5                      -0.10000027878571593     22.98165092490725        1.7568327906469273E-29
-0.5                      0.10024914935345874      22.90275158551853        9.572140220747104E-35
-0.5                      -0.3000911655493217      23.068721850641044       3.94194880674534E-23
-0.5                      -0.30009914409262983     22.838939767110205       3.941948806745317E-23
-0.5                      -0.10000004646428609     22.75229350277506        1.3520878381199924E-23
-0.5                      0.5                      23.165137614678898       1.4115267323705362E-20
-0.5                      0.30044589770329105      23.050458715596328       5.63449830568413E-23
-0.5                      0.10026391328724926      22.674130571488977       1.3592659534308196E-23
-0.5                      0.5                      22.935779816513758       9.768512267686803E-22
-0.5                      0.300445897703292        22.821100917431192       7.177916971451053E-26
-0.5                      0.30044589770329105      22.591743119266056       5.098887993347897E-18
-0.5                      -0.5                     22.935779816513758       3.941947049912556E-23
-0.5                      0.5                      22.706422018348622       5.09986477279347E-18
-0.5                      -0.5                     22.706422018348622       3.131199547897121E-15
-0.5                      -0.3001971051495852      22.61740289059992        2.1918396835279794E-15
-0.5                      -0.09991413518608372     22.527353022046245       2.4386575039389764E-20
-0.5                      -0.30004954724265587     22.382772675995614       2.5602494001554516E-15
-0.5                      0.10027371295425214      22.445272701603297       2.150302917945761E-30
-0.5                      0.30044589770329044      22.36238532110092        2.7469360543233057E-12
-0.5                      -0.0998868769710606      22.299396869293037       3.684097171730886E-16
-0.5                      0.10028758118882641      22.21662730642456        3.618624165691013E-18
-0.5000000000000001       0.5000000000000001       22.47706422018349        2.7469411532112257E-12
-0.5                      0.30044589770329105      22.13302752293578        3.618624167555392E-18
-0.5                      0.10028623318083252      21.987200135729235       7.33498373116024E-18
-0.5                      0.30044589770329         21.90366972477064        2.2251321892028625E-28
-0.5000000000000001       -0.5000000000000001      22.47706422018349        5.323043299943329E-15
-0.5000000000000001       0.5000000000000001       22.24770642201835        2.7469324851017604E-12
-0.5                      0.5                      22.018348623853214       5.108902758169885E-39
-0.5000000000000001       -0.5000000000000001      22.24770642201835        4.068518388089336E-21
-0.5                      -0.0999223810972183      22.068212707591602       7.28558165619981E-18
-0.5                      -0.30013433733706174     22.160278422192444       3.68385344118965E-16
-0.5                      -0.5                     22.018348623853214       5.696005402412183E-16
-0.5                      -0.09989981072080546     21.840015856703836       2.662204259589056E-14
-0.5                      -0.3000990884621637      21.921508664492528       2.6658096845861125E-14
-0.5                      -0.3000908310345468      21.692575603092205       2.6614757014779976E-14
-0.5                      0.10029107759193989      21.758091516552835       2.0056202204658162E-28
-0.5                      -0.30008945479080174     21.463288594397277       5.589916693208701E-32
-0.5                      -0.09989444337170858     21.610934137470057       4.069663184797598E-21
-0.5                      0.30044589770329044      21.6743119266055         5.9795949202918406E-21
-0.5                      0.10029220611796252      21.52879176576322        2.19184375204628E-15
-0.4999999999999999       0.4999999999999999       21.55963302752293        1.8051625693724485E-16
-0.5                      0.5                      21.78899082568807        1.8051323826477019E-16
-0.4999999999999999       -0.4999999999999999      21.55963302752293        1.722761614293372E-30
-0.5                      -0.5                     21.78899082568807        4.333983222608786E-17
-0.5                      -0.5                     21.33027522935779        7.318610192243657E-29
-0.5                      -0.09989328120911356     21.38163611708172        1.0740055134469558E-15
-0.5                      -0.3000892254158758      21.23394259447874        2.6614757013635036E-14
-0.5                      0.30044589770329044      21.444954128440365       2.1918640596290876E-15
-0.5                      0.5                      21.33027522935779        1.6824366467974784E-19
-0.5                      0.10029244772655443      21.29944639508505        7.73898473524008E-15
-0.5                      0.300445897703292        21.215596330275222       9.12888725846266E-15
-0.5                      0.10029249691484443      21.07009112698853        1.3602106084134696E-14
-0.5                      -0.09989304291442402     21.152290575983283       3.216200182657973E-14
-0.5                      -0.3000891871865602      21.004586762688298       2.6614763160863828E-14
-0.5                      0.30044589770329105      20.98623853211009        9.128863649266833E-15
-0.5                      0.10029250659959767      20.84073382697164        5.786008006958243E-10
-0.5                      -0.09989299576512357     20.922935203013296       5.786008007949876E-10
-0.5                      0.300445897703292        20.756880733944957       4.667449391030697E-16
-0.5000000000000001       0.5000000000000001       21.10091743119266        1.3567635675659729E-14
-0.5000000000000001       -0.5000000000000001      21.10091743119266        1.8183785930207004E-20
-0.5                      0.5                      20.87155963302752        1.0221130235272139E-15
-0.5                      -0.5                     20.87155963302752        1.8997505214469622E-20
-0.5                      -0.30008918081498037     20.775229292252316       1.2340226280662269E-20
-0.5                      -0.5                     20.642201834862387       8.1371707182887015E-22
-0.5                      -0.30008917975304605     20.545871548708718       5.431644238070547E-14
-0.5                      0.5                      20.642201834862387       5.07053508179957E-16
-0.5                      0.10029250846150828      20.611376124576235       2.5097619016370921E-29
-0.5                      -0.09989298666798174     20.693577872772476       5.786008007056924E-10
-0.5                      0.30044589770329044      20.527522935779814       2.5330631240449758E-18
-0.5                      0.10029250881312424      20.382018344496892       1.9319250018258847E-23
-0.5                      -0.09989298494530308     20.464220163215582       3.706520978756227E-27
-0.5                      0.5                      20.412844036697248       1.4353031583891934E-21
-0.5                      0.30044589770329155      20.29816513761468        4.47314363402792E-15
-0.5                      -0.5                     20.412844036697248       5.4317690392219656E-14
-0.5                      -0.09989298462377531     20.23486238158863        2.409877762119097E-9
-0.5000000000000001       -0.5000000000000001      20.18348623853211        1.004344535255259E-13
-0.5                      -0.30008917957605596     20.31651375964717        1.0970998597232797E-13
-0.5                      -0.30008917954655795     20.087155962999294       5.539238062761173E-14
-0.5                      -0.09989298456445161     20.005504586474878       2.4098364867700023E-9
-0.5000000000000001       0.5000000000000001       20.18348623853211        2.6616591630875722E-14
-0.5                      0.10029250887860963      20.152660549700084       2.4098279186811387E-9
-0.4999999999999999       0.4999999999999999       19.95412844036697        2.661841415863328E-14
-0.5                      0.30044589770328956      20.068807339449542       4.600771060815502E-15
-0.5                      0.5                      19.724770642201833       1.0198901438575719E-18
-0.5                      0.30044589770329155      19.839449541284402       1.2817937436300262E-16
-0.5                      0.30044589770329155      19.610091743119266       5.631360346297073E-23
-0.5                      0.1002925088906711       19.923302752155337       1.3169335081100048E-14
-0.5                      0.10029250889287278      19.69394495410343        1.694510009773993E-20
-0.5                      -0.3000891795416416      19.857798165087036       2.0483272148687968E-8
-0.5                      -0.09989298455360826     19.776146788867475       2.0483285190775547E-8
-0.5                      -0.30008917954082187     19.628440366964046       2.0483272149547918E-8
-0.5                      0.10029250889327135      19.464587155958803       4.180237000012657E-8
-0.5                      -0.09989298455164167     19.546788990803492       8.767678030176705E-19
-0.5                      -0.5                     19.724770642201833       4.834018887113533E-22
-0.4999999999999999       -0.4999999999999999      19.95412844036697        3.131249209394719E-15
-0.5                      0.5                      19.4954128440367         7.057517212849532E-20
-0.5                      0.3004458977032898       19.380733944954127       8.805019147737818E-6
-0.5                      0.10029250889334307      19.23522935779736        8.846821517741005E-6
-0.5                      0.5                      19.266055045871553       6.968918735043568E-19
-0.5                      0.5                      19.03669724770642        3.304209616042144E-17
-0.5                      0.3004458977032912       19.151376146788984       8.809937154800002E-6
-0.5                      -0.5                     19.4954128440367         5.424731162922615E-20
-0.5                      -0.3000891795406855      19.39908256880593        5.280138766727087E-16
-0.5                      0.30044589770329067      18.922018348623848       4.918007058686587E-9
-0.5                      -0.09989298455128748     19.317431192656574       4.1802370001859547E-8
-0.5                      -0.3000891795406627      19.169724770641963       5.280101213209338E-16
-0.5                      0.10029250889335595      19.00587155963288        2.1190031044036826E-6
-0.5                      -0.09989298455122397     19.0880733944947         2.1140850973717702E-6
-0.5                      -0.3000891795406587      18.94036697247702        4.6287420176322956E-21
-0.5                      -0.5                     19.03669724770642        1.5925310653094135E-24
-0.5                      -0.5                     19.266055045871553       5.262650739438012E-16
-0.5                      0.30044589770329155      18.463302752293572       1.7969426832626627E-5
-0.5                      0.3004458977032902       18.69266055045871        2.2049907572637295E-6
-0.5                      0.10029250889335872      18.547155963302743       1.03590169823669E-6
-0.5                      0.5                      18.80733944954128        4.409981513478521E-6
-0.5                      0.5                      18.57798165137614        4.034883517771257E-5
-0.5                      0.5                      18.348623853211006       3.593885366423405E-5
-0.5                      0.10029250889335817      18.77651376146786        1.0361852110473334E-6
-0.5                      -0.5                     18.80733944954128        4.3639432263433846E-4
-0.5                      -0.09989298455121265     18.858715596330143       2.1169173556616377E-6
-0.5                      -0.3000891795406584      18.711009174311915       2.1819971006220093E-4
-0.5                      -0.09989298455121066     18.62935779816511        1.0387339560712855E-6
-0.5                      -0.0998929845512102      18.399999999999988       7.336376731104805E-18
-0.5                      -0.3000891795406583      18.481651376146786       1.5842438954370549E-13
-0.5                      -0.5                     18.57798165137614        4.3639432263433846E-4
-0.5                      -0.5                     18.348623853211006       1.4968285606112723E-4
-0.5                      -0.30008917954065817     18.25229357798165        7.484142803056361E-5
-0.5                      0.10029250889335896      18.31779816513761        2.8485311351481946E-21
-0.5                      -0.0998929845512102      18.17064220183486        3.66722996573816E-5
-0.5                      0.3004458977032912       18.23394495412844        4.616769427710568E-13
-0.5                      -0.0998929845512102      17.941284403669723       3.7752745128110343E-5
-0.5                      0.10029250889335883      18.08844036697247        7.28412562166249E-18
-0.5                      0.10029250889335896      17.859082568807338       2.894055880277705E-17
-0.5                      0.30044589770329044      18.004587155963296       5.075922936798079E-7
-0.5                      0.3004458977032918       17.77522935779816        5.337953474904495E-17
-0.5                      0.10029250889335896      17.6297247706422         3.8021507175752106E-14
-0.5                      0.5                      18.11926605504587        1.0151845872564332E-6
-0.5                      0.5                      17.88990825688073        1.0151836639635455E-6
-0.5                      -0.5                     18.11926605504587        1.4968285574441686E-4
-0.5                      -0.3000891795406583      18.022935779816507       3.739743084578227E-5
-0.5                      -0.5                     17.88990825688073        1.3746217244549836E-10
-0.5                      -0.30008917954065817     17.793577981651374       1.080653123333675E-6
-0.5                      -0.5                     17.660550458715594       4.15309608096523E-10
-0.5                      -0.30008917954065806     17.56422018348624        1.2201212331986814E-7
-0.5                      -0.0998929845512101      17.711926605504583       3.553143599148359E-7
-0.5                      -0.09989298455121003     17.482568807339447       1.2187321264420103E-7
-0.4999999999999999       -0.4999999999999999      17.431192660550455       3.253960378412603E-13
-0.5                      -0.30008917954065795     17.3348623853211         3.705934558741859E-7
-0.4999999999999999       -0.4999999999999999      17.20183486238532        1.1694187190925196E-11
-0.5                      0.5                      17.660550458715594       2.736547910617068E-18
-0.5                      -0.09989298455121003     17.253211009174308       2.5216568569246064E-7
-0.5                      0.3004458977032902       17.545871559633024       1.003682521220776E-8
-0.5                      0.10029250889335896      17.40036697247706        3.802194423495019E-14
-0.5                      -0.0998929845512102      17.023853211009172       3.445467514219728E-9
-0.5                      0.10029250889335883      17.171009174311923       3.4454674673106743E-9
-0.5                      0.30044589770329155      17.316513761467885       1.0036787189896256E-8
-0.5                      0.30044589770329044      17.08715596330275        4.9343510067540934E-9
-0.5                      0.10029250889335861      16.941651376146783       1.156151253017521E-13
-0.4999999999999999       0.4999999999999999       17.431192660550455       2.0073574379792502E-8
-0.4999999999999999       0.4999999999999999       16.972477064220183       6.050111837361409E-6
-0.4999999999999999       0.4999999999999999       17.20183486238532        9.573142042938814E-22
-0.5                      0.30044589770329044      16.85779816513761        3.025055918680704E-6
-0.5                      -0.30008917954065795     17.10550458715596        2.487271928780206E-7
-0.4999999999999999       -0.4999999999999999      16.972477064220183       1.4466550890188352E-11
-0.5                      -0.30008917954065817     16.87614678899082        1.3862555276959224E-12
-0.5                      -0.0998929845512102      16.79449541284403        4.180331260967437E-8
-0.4999999999999999       -0.4999999999999999      16.74311926605504        7.604336312331449E-14
-0.5                      -0.30008917954065817     16.646788990825684       2.641303429105608E-15
-0.5                      0.10029250889335883      16.712293577981647       4.180331256755878E-8
-0.5                      -0.0998929845512102      16.565137614678893       4.187138630611315E-8
-0.4999999999999999       -0.4999999999999999      16.513761467889903       8.989270213504259E-16
-0.4999999999999999       0.4999999999999999       16.74311926605504        6.388451132016871E-6
-0.5                      0.3004458977032912       16.628440366972473       1.7410402826217324E-7
-0.4999999999999999       0.4999999999999999       16.513761467889903       3.891743200058427E-7
-0.5                      0.10029250889335872      16.48293577981651        2.992768827509857E-14
-0.5                      -0.30008917954065795     16.41743119266054        6.807866245491577E-11
-0.4999999999999998       -0.4999999999999998      16.284403669724764       1.2635529919140286E-16
-0.5                      -0.3000891795406584      16.188073394495405       2.048316577331681E-8
-0.4999999999999999       -0.4999999999999999      16.055045871559624       4.096632474811202E-8
-0.4999999999999998       0.4999999999999998       16.284403669724764       1.604019829047116E-7
-0.5                      0.30044589770329055      16.399082568807334       2.0483427544135576E-8
-0.5                      0.10029250889335861      16.253577981651368       5.8523395594197316E-8
-0.5                      -0.0998929845512102      16.335779816513753       6.807602115177789E-11
-0.5                      -0.30008917954065795     15.958715596330272       2.0483162374107574E-8