% Model:              Cav_Hex_Unif_flux_v5.1 - Base Case.mph
% Version:            COMSOL 5.5.0.359
% Date:               May 16 2022, 15:14
% Dimension:          3
% Nodes:              2547
% Expressions:        1
% Description:        Surface
% x                       y                        z                        Color
0.9000000000000004        -0.5893296300533294      0                        0.013819116905461127
0.9000000000000002        -0.9000000000000002      0                        0.01854670953101362
0.6758991604291763        -0.6818947890086712      0                        0.01818304855981727
0.589329630053329         -0.9000000000000002      0                        0.01527376079024651
0.6937841581024305        0.7221794273696616       0                        0.016582940286553348
0.9000000000000002        0.9000000000000002       0                        0.01963769244460265
0.9000000000000002        0.589329630053329        0                        0.013091794963068431
0.589329630053331         0.9000000000000001       0                        0.021092336329388037
0.6429787372946103        0.5668337503964518       0                        0.013091794963068431
0.6871830740220647        -0.42942039362872        0                        0.011273490107086706
0.9000000000000002        -0.2923547744504526      0                        0.014546438847853818
0.5                       -0.5                     0                        0.015819252247041022
0.6969657101081116        0.3876445799798537       0                        0.016364743703835543
0.9000000000000002        0.29235477445045255      0                        0.018910370502209953
0.5                       0.5                      0                        0.009818846222301326
0.6836792529949159        0.09923472482597129      0                        0.018390854829072323
0.9000000000000002        -2.3245294578089215E-16  0                        0.01891037050220996
0.6945998561946013        -0.17331312739205074     0                        0.016364743703835543
0.3923107138266483        -0.7013359050164196      0                        0.017819387588620925
0.29235477445045255       -0.9000000000000002      0                        0.01891037050220996
0.4597144096173516        0.6875023040137753       0                        0.014962051386363926
0.292354774450452         0.9000000000000001       0                        0.020365014386995343
0.5                       -0.29999999999999993     0                        0.01381911690546112
0.3                       -0.5000000000000001      0                        0.016728404675031887
0.29999999999999993       0.5                      0                        0.017455726617424578
0.5                       -0.09999999999999996     0                        0.013091794963068433
0.5000000000000001        0.09999999999999994      0                        0.0120008120494794
0.5000000000000001        0.3                      0                        0.020365014386995343
0.10000898552300573       -0.6845725445214315      0                        0.01807914542518974
-2.3245294578089215E-16   -0.9000000000000002      0                        0.019637692444602648
0.16768209247720045       0.6945441599626757       0                        0.01891037050220996
-3.365363543395006E-16    0.9000000000000001       0                        0.019637692444602648
0.09999999999999994       -0.5000000000000001      0                        0.017455726617424575
0.09999999999999996       0.5                      0                        0.019637692444602648
-0.1733535788632017       -0.6969593991919008      0                        0.012728133991872087
-0.2923547744504526       -0.9000000000000002      0                        0.013819116905461124
-0.09999999999999996      -0.5                     0                        0.014546438847853815
-0.4174703328164362       -0.6911283763392955      0                        0.015637421761442852
-0.5893296300533294       -0.9000000000000004      0                        0.021092336329388034
-0.29999999999999993      -0.5                     0                        0.014546438847853817
-0.10668630969886467      0.6790653003497988       0                        0.014650341982481342
-0.2923547744504523       0.9000000000000002       0                        0.018183048559817273
-0.09999999999999994      0.5000000000000001       0                        0.012000812049479392
-0.6807002337862077       -0.6803399008622184      0                        0.022546980214173413
-0.9000000000000002       -0.9000000000000002      0                        0.02400162409895879
-0.9000000000000002       -0.5893296300533319      0                        0.0240016240989588
-0.5                      -0.5                     0                        0.017455726617424578
-0.3902264008543796       0.6980992942694024       0                        0.01418277787665747
-0.5893296300533308       0.9000000000000004       0                        0.014546438847853818
-0.9000000000000001       0.5893296300533301       0                        0.01963769244460265
-0.9000000000000002       0.9000000000000002       0                        0.014182777876657478
-0.675539068992048        0.6848230808494363       0                        0.016001082732639196
-0.3                      0.5000000000000001       0                        0.01163715107828305
-0.7056647616171544       -0.4012391688479755      0                        0.02109233632938803
-0.9000000000000002       -0.2923547744504521      0                        0.021092336329388034
-0.5000000000000001       -0.3                     0                        0.015273760790246503
-0.6935814078214282       0.4176015287053222       0                        0.019274031473406304
-0.9000000000000002       0.2923547744504526       0                        0.016001082732639196
-0.5                      0.5                      0                        0.020183183901397162
-0.681626811212718        -0.100781543403762       0                        0.019637692444602648
-0.9000000000000002       4.683753385137379E-16    0                        0.021092336329388034
-0.696451866858304        0.1697357326540282       0                        0.017819387588620922
-0.5000000000000001       -0.09999999999999994     0                        0.01309179496306843
-0.5                      0.29999999999999993      0                        0.021819658271780718
-0.5                      0.09999999999999996      0                        0.017455726617424575
-0.5000000000000001       -0.3                     25.000000000000004       0
-0.5                      -0.3059293051210753      24.871113759064436       3.620908447546994E-62
-0.5000000000000001       -0.09999999999999994     25.000000000000004       0
-0.5                      -0.5                     25                       1.0862725342640967E-62
-0.5                      0.09999999999999996      25                       0
-0.5                      0.0012474629403731452    24.824478615266376       1.4831241001152522E-59
-0.5                      -0.15247293615605728     24.80153289283518        1.7797489201383028E-59
-0.5                      -0.07376939027217244     24.658634479534943       1.4831241001152522E-59
-0.5                      0.29999999999999993      25                       0
-0.5                      0.3040220343766734       24.871348772487053       0
-0.5                      0.5                      25                       0
-0.5                      0.15346998629840036      24.803901844764784       0
-0.5                      0.08319120199263164      24.686534954738836       0
-0.5                      -0.5                     24.77064220183486        3.620908447546994E-62
-0.5                      -0.283114873984196       24.65511266611272        1.4656505734486923E-41
-0.5                      0.5                      24.77064220183486        0
-0.5                      0.27066221996164047      24.653548588322643       0
-0.5                      0.5                      24.541284403669728       1.1586907032150346E-61
-0.5                      0.06434573103491703      24.492111245805432       8.735958179525774E-49
-0.5                      -0.1425296649837543      24.51419726241842        2.3102461817535968E-26
-0.5                      -0.3071028528123615      24.42838417652497        1.9252051514613323E-26
-0.5                      -0.5                     24.541284403669728       1.7099256690234745E-41
-0.5                      -0.5                     24.31192660550459        3.707810250288092E-60
-0.5                      -0.11300702634461765     24.336745133343392       1.9252053809636693E-26
-0.5                      -0.30396555156160077     24.21103898810095        2.2950233834520912E-33
-0.5                      0.5                      24.31192660550459        5.519948210269811E-22
-0.5                      0.2886176771805674       24.411539039725046       1.0191951209446736E-48
-0.5                      -0.10379158765201787     24.12406149031004        2.2950233834520912E-33
-0.5                      0.08845885869414172      24.26570758672937        1.0191956069347787E-48
-0.5                      0.29647374785642233      24.18224435843907        1.5771280600770886E-22
-0.5                      0.09811461008957889      24.047544252753248       4.859901051257547E-55
-0.5                      0.5                      24.082568807339452       5.519948210361612E-22
-0.5                      -0.5                     24.082568807339452       9.414361963622149E-61
-0.5                      -0.1003613062873503      23.898497762368613       2.317381406430318E-61
-0.5                      -0.300522748359758       23.985536698837844       2.3847303035543946E-58
-0.5                      -0.5                     23.853211009174313       6.370747125761626E-50
-0.5                      -0.3001614484438031      23.75676337938257        6.369969529634289E-50
-0.5                      -0.10006021771455875     23.66962730290241        6.308512240308428E-21
-0.5                      -0.30010126895762        23.52750108258405        1.2617024480616833E-21
-0.5                      0.09982159268566172      23.819733686342378       5.0468097922467446E-21
-0.5                      0.5                      23.853211009174313       9.180094628160881E-33
-0.5                      0.30044589770329         23.967889908256883       1.0943524281750195E-39
-0.5                      0.10016630749956734      23.590731227876073       5.0468097922467446E-21
-0.5                      0.30044589770329         23.738532110091743       1.094352428684617E-39
-0.5                      -0.3000914620421111      23.29814773080317        3.0374381570359847E-55
-0.5                      -0.1000100362857603      23.440350727853758       1.2617024480616833E-21
-0.5                      -0.10000167271429358     23.211006466874704       3.453167388483997E-69
-0.5                      0.10023379625431172      23.36144889761737        3.8504103029226474E-26
-0.5                      0.30044589770329105      23.5091743119266         6.839705988478419E-41
-0.5                      0.10024671709439581      23.132106384873858       3.850410302922668E-26
-0.5                      0.30044589770329155      23.279816513761464       3.850410303370922E-26
-0.5                      0.5                      23.394495412844034       6.723701318821543E-36
-0.5                      0.5                      23.62385321100917        4.943096336581651E-47
-0.5                      -0.5                     23.394495412844034       6.287496985064412E-54
-0.5                      -0.5                     23.62385321100917        8.754819425463989E-39
-0.5                      -0.5                     23.165137614678898       2.7625339107921956E-68
-0.5                      -0.10000027878571593     22.98165092490725        6.220673345609669E-53
-0.5                      0.10024914935345874      22.90275158551853        3.621129453632032E-63
-0.5                      -0.3000911655493217      23.068721850641044       1.3679405352194122E-40
-0.5                      -0.30009914409262983     22.838939767110205       1.3679405352194122E-40
-0.5                      -0.10000004646428609     22.75229350277506        1.70992566902348E-41
-0.5                      0.5                      23.165137614678898       6.723701318707392E-36
-0.5                      0.30044589770329105      23.050458715596328       2.735882375007349E-40
-0.5                      0.10026391328724926      22.674130571488977       1.709978667194749E-41
-0.5                      0.5                      22.935779816513758       7.003855540320219E-38
-0.5                      0.300445897703292        22.821100917431192       5.2998171172006804E-46
-0.5                      0.30044589770329105      22.591743119266056       1.1750519723274614E-30
-0.5                      -0.5                     22.935779816513758       1.3679405352187902E-40
-0.5                      0.5                      22.706422018348622       1.1750520423660162E-30
-0.5                      -0.5                     22.706422018348622       3.0803282423380775E-25
-0.5                      -0.3001971051495852      22.61740289059992        1.5401641211690356E-25
-0.5                      -0.09991413518608372     22.527353022046245       3.58619464377279E-35
-0.5                      -0.30004954724265587     22.382772675995614       1.5882942503197906E-25
-0.5                      0.10027371295425214      22.445272701603297       9.738786090996597E-55
-0.5                      0.30044589770329044      22.36238532110092        1.6149791335248326E-19
-0.5                      -0.0998868769710606      22.299396869293037       4.813012915075528E-27
-0.5                      0.10028758118882641      22.21662730642456        5.876694251251964E-31
-0.5000000000000001       0.5000000000000001       22.47706422018349        1.614979133536583E-19
-0.5                      0.30044589770329105      22.13302752293578        5.876694251251964E-31
-0.5                      0.10028623318083252      21.987200135729235       2.350247471164603E-30
-0.5                      0.30044589770329         21.90366972477064        4.976538735812636E-51
-0.5000000000000001       -0.5000000000000001      22.47706422018349        4.62049236351832E-25
-0.5000000000000001       0.5000000000000001       22.24770642201835        1.6149791335189573E-19
-0.5                      0.5                      22.018348623853214       1.391046473549439E-71
-0.5000000000000001       -0.5000000000000001      22.24770642201835        1.1206168864512345E-36
-0.5                      -0.0999223810972183      22.068212707591602       2.3501040322031705E-30
-0.5                      -0.30013433733706174     22.160278422192444       4.813012879213599E-27
-0.5                      -0.5                     22.018348623853214       9.701229083535609E-27
-0.5                      -0.09989981072080546     21.840015856703836       1.9714103101067868E-23
-0.5                      -0.3000990884621637      21.921508664492528       1.9714175954290062E-23
-0.5                      -0.3000908310345468      21.692575603092205       1.9714100750963834E-23
-0.5                      0.10029107759193989      21.758091516552835       4.478884868165688E-51
-0.5                      -0.30008945479080174     21.463288594397277       5.340772068686594E-58
-0.5                      -0.09989444337170858     21.610934137470057       1.1206170201696324E-36
-0.5                      0.30044589770329044      21.6743119266055         2.2434235464623622E-36
-0.5                      0.10029220611796252      21.52879176576322        1.5401641211802565E-25
-0.4999999999999999       0.4999999999999999       21.55963302752293        1.2032532224670668E-27
-0.5                      0.5                      21.78899082568807        1.2032532219045672E-27
-0.4999999999999999       -0.4999999999999999      21.55963302752293        3.644927381643051E-55
-0.5                      -0.5                     21.78899082568807        7.520332622895843E-29
-0.5                      -0.5                     21.33027522935779        9.953077947895292E-52
-0.5                      -0.09989328120911356     21.38163611708172        3.8504103030346925E-26
-0.5                      -0.3000892254158758      21.23394259447874        1.9714100750963796E-23
-0.5                      0.30044589770329044      21.444954128440365       1.54016412152767E-25
-0.5                      0.5                      21.33027522935779        1.1833714342966979E-33
-0.5                      0.10029244772655443      21.29944639508505        8.085861636138876E-25
-0.5                      0.300445897703292        21.215596330275222       2.4642625939064968E-24
-0.5                      0.10029249691484443      21.07009112698853        3.0803282429120093E-24
-0.5                      -0.09989304291442402     21.152290575983283       2.03686705030344E-23
-0.5                      -0.3000891871865602      21.004586762688298       1.9714100750966044E-23
-0.5                      0.30044589770329105      20.98623853211009        2.4642625938707772E-24
-0.5                      0.10029250659959767      20.84073382697164        5.291963624868879E-15
-0.5                      -0.09989299576512357     20.922935203013296       5.291963624868879E-15
-0.5                      0.300445897703292        20.756880733944957       4.937862222712766E-27
-0.5000000000000001       0.5000000000000001       21.10091743119266        4.9381512146457704E-24
-0.5000000000000001       -0.5000000000000001      21.10091743119266        7.84431820515852E-36
-0.5                      0.5                      20.87155963302752        1.4587095184473098E-26
-0.5                      -0.5                     20.87155963302752        7.870582663435724E-36
-0.5                      -0.30008918081498037     20.775229292252316       8.982444730460559E-36
-0.5                      -0.5                     20.642201834862387       2.6264458276200855E-38
-0.5                      -0.30008917975304605     20.545871548708718       7.885640302222412E-23
-0.5                      0.5                      20.642201834862387       4.96312583983779E-27
-0.5                      0.10029250846150828      20.611376124576235       1.2441346691222185E-52
-0.5                      -0.09989298666798174     20.693577872772476       5.291963624868879E-15
-0.5                      0.30044589770329044      20.527522935779814       2.9383471260108437E-31
-0.5                      0.10029250881312424      20.382018344496892       3.4198515418869407E-41
-0.5                      -0.09989298494530308     20.464220163215582       2.038398017731027E-48
-0.5                      0.5                      20.412844036697248       1.4021392155841898E-37
-0.5                      0.30044589770329155      20.29816513761468        6.160656484677645E-25
-0.5                      -0.5                     20.412844036697248       7.885640309572764E-23
-0.5                      -0.09989298462377531     20.23486238158863        8.467141807429361E-14
-0.5000000000000001       -0.5000000000000001      20.18348623853211        1.679163939716383E-22
-0.5                      -0.30008917957605596     20.31651375964717        1.5775131049630346E-22
-0.5                      -0.30008917954655795     20.087155962999294       7.889490740079103E-23
-0.5                      -0.09989298456445161     20.005504586474878       8.467141800036573E-14
-0.5000000000000001       0.5000000000000001       20.18348623853211        1.9714100898060428E-23
-0.5                      0.10029250887860963      20.152660549700084       8.467141799605328E-14
-0.4999999999999999       0.4999999999999999       19.95412844036697        1.971410098986122E-23
-0.5                      0.30044589770328956      20.068807339449542       6.166673486616433E-25
-0.5                      0.5                      19.724770642201833       2.754028101180747E-32
-0.5                      0.30044589770329155      19.839449541284402       6.0171841076727845E-28
-0.5                      0.30044589770329155      19.610091743119266       2.7358810704475063E-40
-0.5                      0.1002925088906711       19.923302752155337       4.9291269612322965E-24
-0.5                      0.10029250889287278      19.69394495410343        1.7929870183219826E-35
-0.5                      -0.3000891795416416      19.857798165087036       5.418970752023426E-12
-0.5                      -0.09989298455360826     19.776146788867475       5.418970752028355E-12
-0.5                      -0.30008917954082187     19.628440366964046       5.418970752023426E-12
-0.5                      0.10029250889327135      19.464587155958803       2.1675883006832064E-11
-0.5                      -0.09989298455164167     19.546788990803492       3.673886431599727E-32
-0.5                      -0.5                     19.724770642201833       1.7511777334156642E-38
-0.4999999999999999       -0.4999999999999999      19.95412844036697        3.080328243772508E-25
-0.5                      0.5                      19.4954128440367         2.868779229315145E-34
-0.5                      0.3004458977032898       19.380733944954127       7.102753343678582E-7
-0.5                      0.10029250889334307      19.23522935779736        7.102970102508651E-7
-0.5                      0.5                      19.266055045871553       1.176201453853564E-32
-0.5                      0.5                      19.03669724770642        3.789772113094456E-29
-0.5                      0.3004458977032912       19.151376146788984       7.102756730535302E-7
-0.5                      -0.5                     19.4954128440367         1.4394674099350682E-34
-0.5                      -0.3000891795406855      19.39908256880593        9.626172639503572E-27
-0.5                      0.30044589770329067      18.922018348623848       3.386856719817522E-13
-0.5                      -0.09989298455128748     19.317431192656574       2.1675883006832064E-11
-0.5                      -0.3000891795406627      19.169724770641963       9.626172638820703E-27
-0.5                      0.10029250889335595      19.00587155963288        4.439254708366384E-8
-0.5                      -0.09989298455122397     19.0880733944947         4.4392208397991855E-8
-0.5                      -0.3000891795406587      18.94036697247702        1.1386738351081389E-36
-0.5                      -0.5                     19.03669724770642        2.671763953824827E-43
-0.5                      -0.5                     19.266055045871553       9.626025757796911E-27
-0.5                      0.30044589770329155      18.463302752293572       2.8411013374714326E-6
-0.5                      0.3004458977032902       18.69266055045871        2.7745130248744956E-8
-0.5                      0.10029250889335872      18.547155963302743       1.1098052099498012E-8
-0.5                      0.5                      18.80733944954128        5.549026049748991E-8
-0.5                      0.5                      18.57798165137614        5.737692935440354E-6
-0.5                      0.5                      18.348623853211006       5.682202674942865E-6
-0.5                      0.10029250889335817      18.77651376146786        1.109805342248892E-8
-0.5                      -0.5                     18.80733944954128        7.273219424032794E-4
-0.5                      -0.09989298455121265     18.858715596330143       4.439229472314848E-8
-0.5                      -0.3000891795406584      18.711009174311915       3.6366097128664185E-4
-0.5                      -0.09989298455121066     18.62935779816511        1.1098138424654642E-8
-0.5                      -0.0998929845512102      18.399999999999988       2.3502479439248662E-30
-0.5                      -0.3000891795406583      18.481651376146786       6.308513767875917E-22
-0.5                      -0.5                     18.57798165137614        7.273219424032794E-4
-0.5                      -0.5                     18.348623853211006       9.091524279908709E-5
-0.5                      -0.30008917954065817     18.25229357798165        4.5457621399543545E-5
-0.5                      0.10029250889335896      18.31779816513761        5.603084766878703E-37
-0.5                      -0.0998929845512102      18.17064220183486        1.1364405349885724E-5
-0.5                      0.3004458977032912       18.23394495412844        5.046809792246753E-21
-0.5                      -0.0998929845512102      17.941284403669723       1.1371341632447909E-5
-0.5                      0.10029250889335883      18.08844036697247        2.3501039446549204E-30
-0.5                      0.10029250889335896      17.859082568807338       2.1160115595428354E-29
-0.5                      0.30044589770329044      18.004587155963296       2.7745130248795033E-9
-0.5                      0.3004458977032918       17.77522935779816        5.648628095508505E-29
-0.5                      0.10029250889335896      17.6297247706422         3.9428201511110184E-23
-0.5                      0.5                      18.11926605504587        5.5490260497590065E-9
-0.5                      0.5                      17.88990825688073        5.5490260497489124E-9
-0.5                      -0.5                     18.11926605504587        9.091524279908709E-5
-0.5                      -0.3000891795406583      18.022935779816507       1.1369954375935472E-5
-0.5                      -0.5                     17.88990825688073        8.269702525575484E-17
-0.5                      -0.30008917954065817     17.793577981651374       6.936282975630913E-9
-0.5                      -0.5                     17.660550458715594       4.1344475195445254E-16
-0.5                      -0.30008917954065806     17.56422018348624        1.7340739480506427E-10
-0.5                      -0.0998929845512101      17.711926605504583       1.3872565124374074E-9
-0.5                      -0.09989298455121003     17.482568807339447       1.734070640573425E-10
-0.4999999999999999       -0.4999999999999999      17.431192660550455       2.5235589501371558E-21
-0.5                      -0.30008917954065795     17.3348623853211         8.670353202783229E-10
-0.4999999999999999       -0.4999999999999999      17.20183486238532        8.07489566872271E-19
-0.5                      0.5                      17.660550458715594       1.4917651992438496E-31
-0.5                      -0.09989298455121003     17.253211009174308       6.937975992186318E-10
-0.5                      0.3004458977032902       17.545871559633024       1.354742688005863E-12
-0.5                      0.10029250889335896      17.40036697247706        3.9428201538650465E-23
-0.5                      -0.0998929845512102      17.023853211009172       1.6934299768593058E-13
-0.5                      0.10029250889335883      17.171009174311923       1.693429976859305E-13
-0.5                      0.30044589770329155      17.316513761467885       1.3547426879664348E-12
-0.5                      0.30044589770329044      17.08715596330275        3.386908399149792E-13
-0.5                      0.10029250889335861      16.941651376146783       1.9714100750963917E-22
-0.4999999999999999       0.4999999999999999       17.431192660550455       2.7094853759328697E-12
-0.4999999999999999       0.4999999999999999       16.972477064220183       1.7756951097364734E-7
-0.4999999999999999       0.4999999999999999       17.20183486238532        3.501927770160056E-38
-0.5                      0.30044589770329044      16.85779816513761        8.878475548682367E-8
-0.5                      -0.30008917954065795     17.10550458715596        6.936282566627343E-10
-0.4999999999999999       -0.4999999999999999      16.972477064220183       4.26354887071372E-17
-0.5                      -0.30008917954065817     16.87614678899082        4.041406063125656E-20
-0.5                      -0.0998929845512102      16.79449541284403        2.1675883027019326E-11
-0.4999999999999999       -0.4999999999999999      16.74311926605504        1.653739815569451E-16
-0.5                      -0.30008917954065817     16.646788990825684       1.5672373186115305E-25
-0.5                      0.10029250889335883      16.712293577981647       2.1675883027019326E-11
-0.5                      -0.0998929845512102      16.565137614678893       2.1675965713951116E-11
-0.4999999999999999       -0.4999999999999999      16.513761467889903       1.6537386327564956E-16
-0.4999999999999999       0.4999999999999999       16.74311926605504        1.7826246184818612E-7
-0.5                      0.3004458977032912       16.628440366972473       3.468141281093327E-10
-0.4999999999999999       0.4999999999999999       16.513761467889903       7.044661977220415E-10
-0.5                      0.10029250889335872      16.48293577981651        2.0023336901858158E-23
-0.5                      -0.30008917954065795     16.41743119266054        8.268693240895843E-17
-0.4999999999999998       -0.4999999999999998      16.284403669724764       6.016266098322398E-28
-0.5                      -0.3000891795406584      16.188073394495405       5.418970751708601E-12
-0.4999999999999999       -0.4999999999999999      16.055045871559624       8.128456127562016E-12
-0.4999999999999998       0.4999999999999998       16.284403669724764       9.754147353200585E-11