% Model:              Cav_Hex_Unif_flux_v5.1 - Base Case.mph
% Version:            COMSOL 5.5.0.359
% Date:               May 16 2022, 15:15
% Dimension:          3
% Nodes:              4895
% Expressions:        1
% Description:        Surface
% x                       y                        z                        Color
-4                        -4                       0                        0.09687928272670637
-2.9920541778741505       -4.3999999999999995      0                        0.09513371006496392
-4.4                      -4.4                     0                        0.09098797499332557
-4.4                      -2.992054177874187       0                        0.10124321438106249
4                         -4                       0                        0.10178870583785701
4.3999999999999995        -2.9920541778741314      0                        0.11608058200587339
4.4                       -4.4                     0                        0.09818846222301321
-4                        4                        0                        0.08738773137848174
-4.3999999999999995       2.992054177874185        0                        0.09862485538844883
-4.4                      4.4                      0                        0.09426092373409267
-2.6666666666666656       -4                       0                        0.10037042805019131
4                         4                        0                        0.09458821860816938
2.9920541778741283        4.400000000000001        0                        0.10997107768977478
4.4                       4.4                      0                        0.09426092373409266
-4                        2.6666666666666656       0                        0.10124321438106254
2.6666666666666656        4                        0                        0.10866189819346798
4                         -2.666666666666665       0                        0.11520779567500215
-1.50006247644149         -4.4                     0                        0.10647993236628994
-4.3999999999999995       1.5000624764415353       0                        0.10866189819346801
-4                        -2.666666666666666       0                        0.10298878704280494
-4.4                      -1.500062476441879       0                        0.10735271869716108
-2.9920541778741256       4.4                      0                        0.09338813740322145
1.50006247644149          4.4                      0                        0.10298878704280502
4.4                       -1.500062476441756       0                        0.10822550502803231
4.4                       2.992054177874135        0                        0.09120617157604337
2.9920541778741483        -4.4                     0                        0.08946059891430092
2.666666666666666         -4                       0                        0.09469731689952827
1.5000624764414938        -4.4                     0                        0.10997107768977477
-1.3333333333333328       -3.999999999999999       0                        0.10997107768977483
0                         -4.4                     0                        0.1129167315564652
-4                        -1.333333333333334       0                        0.10342518020824058
-4.4                      1.6439627437137005E-13   0                        0.10702542382308441
-3.999999999999999        1.3877787807814457E-17   0                        0.10277059046008716
-2.666666666666666        4                        0                        0.09426092373409267
-1.500062476441586        4.400000000000001        0                        0.10953468452433918
-3.999999999999999        1.3333333333333328       0                        0.10647993236628994
-1.333333333333334        4                        0                        0.10604353920085426
8.268385975895853E-14     4.4                      0                        0.10473435970454745
4.000000000000001         -1.3333333333333306      0                        0.10517075286998301
4.4                       0                        0                        0.10473435970454742
1.333333333333334         -4                       0                        0.11040747085521037
-1.3877787807814457E-17   -3.999999999999999       0                        0.09884305197116662
4                         2.666666666666665        0                        0.10604353920085426
4.4                       1.5000624764412833       0                        0.11564418884043777
4                         1.3333333333333313       0                        0.1130258298478241
1.3333333333333328        3.999999999999999        0                        0.09818846222301326
1.3877787807814457E-17    3.999999999999999        0                        0.10080682121562688
3.999999999999999         -1.3877787807814457E-17  0                        0.10473435970454742
-4                        -3.1074256637010818      0.9199367662118041       0.035372636490097635
-3.999999999999999        -3.999999999999999       1.3245033112582785       0.032916922420860056
-4                        -4                       0                        0.028797455836022043
-4                        -2.666666666666666       0                        0.03776086601302219
-4                        3.0747369684025205       0.8888064185075706       0.03176600450519655
-4                        2.6666666666666656       0                        0.0321382945123837
-4                        4                        0                        0.029639413403707824
-3.999999999999999        3.999999999999999        1.3245033112582785       0.033684377391954255
-4                        1.9754251660009035       1.0350961621053978       0.038065057858507334
-3.999999999999999        1.3333333333333328       0                        0.04150013864834464
-4                        4                        2.649006622516557        0.04292791310203412
-4                        2.7451747987511625       2.0778673477792386       0.037355553403934004
-4                        0.6666666666666661       1.1528241500043945       0.03713263331358164
-3.999999999999999        1.3877787807814457E-17   0                        0.03977254236346057
-4                        -0.5671277402680284      1.1115538003755534       0.040315664360548474
-4                        -1.333333333333334       0                        0.04466504890161058
-4                        -1.9142013189698064      1.2509265278637607       0.04342277759636215
-4                        -2.956260459858097       2.024254036688955        0.038990637945857796
-4                        -4                       2.649006622516557        0.04045985662977645
-4                        -0.9523709265210606      2.104075424329055        0.040887684160979446
-4                        -2.8498523081971534      3.3112582781456896       0.047083713573251466
-4                        -4                       3.9735099337748343       0.04824587116600201
-4                        1.3659725621850731       2.091079056341094        0.03557832106921257
-4                        2.8531599255238147       3.3776803038500725       0.04490848750877722
-4                        4                        3.9735099337748343       0.04636082515359637
-4                        -2.849852308197148       4.635761589403964        0.05054711398989697
-4                        -4                       5.298013245033114        0.04811717912996377
-4                        1.8242278298002734       2.956426395851053        0.03603170277012243
-4                        0.13548563583149864      2.1563664444932074       0.036236591680822085
-4                        -1.866083468280541       2.68989271413771         0.045387377568109864
-4                        -0.5499619762764699      3.362090466980872        0.05150234015732041
-4                        -1.7321975836865393      4.042134436903777        0.05319051015343335
-4                        0.8493301775178121       3.1674079577634906       0.043452204606762884
-4                        4                        5.298013245033114        0.04677517027511694
-4                        2.849852308197148        4.635761589403964        0.051972493883220526
-4                        1.7720005635865148       3.9876939136795126       0.04816158113593385
-4                        -2.8498523081971605      5.960264900662283        0.049009810332613514
-3.999999999999999        -3.999999999999999       6.622516556291392        0.050614404366713224
-4                        -1.707870031213493       5.403973509933802        0.05222708666321318
-4                        2.8498523081971605       5.96026490066226         0.05011794010492921
-3.999999999999999        3.999999999999999        6.622516556291392        0.049884345559142486
-4                        2.849852308197159        7.284768211920534        0.05015362623000544
-3.999999999999999        3.999999999999999        7.94701986754967         0.04982735144576744
-4                        1.6997046163943201       6.622516556291414        0.052992026666320045
-4                        -0.5699704616394303      4.900662251655663        0.05830926470855773
-4                        0.6049282103932478       4.443141508172911        0.053839113385555006
-4                        0.5689922407490826       5.795711222664613        0.05304050795639775
-4                        1.6997046163943033       5.298013245033162        0.053018099378424666
-4                        -2.849852308197159       7.284768211920534        0.053749849321343614
-3.999999999999999        -3.999999999999999       7.94701986754967         0.048785679270301634
-4                        -1.7078700312134965      6.7284768211920865       0.05366172260777712
-4                        -0.5709826472994184      6.255830986254818        0.05419054239594288
-4                        0.5630029124750511       7.124892267795124        0.05126772633941754
-4                        -2.849852308197148       8.609271523178808        0.05393195716530028
-4                        -4                       9.27152317880795         0.04591116861344171
-4                        1.6997046163943084       7.947019867549655        0.049683858249949454
-4                        2.849852308197148        8.609271523178808        0.051069983065520685
-4                        4                        9.27152317880795         0.04782173298802239
-4                        -1.7078700312134993      8.05298013245036         0.06013554374458252
-4                        -0.5721805129542246      7.58126984428753         0.05458447690987021
-4                        0.5620046910960461       8.450175201365441        0.0502808055794065
-4                        -2.8498523081971543      9.933774834437104        0.05257742462740641
-4.000000000000001        -4.000000000000001       10.59602649006623        0.04794178036524699
-4                        -0.5723801572300271      8.905929080008212        0.0544343510113513
-4                        -1.7078700312134947      9.377483443708634        0.05651321566875608
-4.000000000000001        4.000000000000001        10.59602649006623        0.04716619794266813
-4                        2.8498523081971543       9.933774834437104        0.053864758754378204
-4                        1.6997046163943061       9.271523178807971        0.05177618856796914
-4                        0.5618383208662135       9.774808449675698        0.05218691738803239
-4                        -0.5724134312759936      10.230458378676898       0.048877168551296916
-4                        -2.849852308197167       11.258278145695366       0.051942523001854056
-4                        -4                       11.920529801324506       0.04812298218599028
-4                        -1.7078700312134985      10.701986754966908       0.052686577970298874
-4                        -2.849852308197155       12.582781456953642       0.04995895059169233
-4                        -0.5724189769503222      11.554966021170221       0.04930245055961519
-4                        4                        11.920529801324506       0.0405865056674934
-4                        2.849852308197161        11.258278145695366       0.05003719778806995
-4                        1.6997046163943172       10.596026490066226       0.05366614879422534
-4                        0.5618105924945729       11.099333417109314       0.052496859019415254
-3.999999999999999        -3.999999999999999       13.245033112582783       0.045306357518888486
-4                        -1.7078700312135018      12.026490066225183       0.0517337023921779
-3.999999999999999        3.999999999999999        13.245033112582783       0.038829013267592395
-4                        2.8498523081971543       12.582781456953642       0.04468690131575193
-4                        1.6997046163943121       11.920529801324498       0.050954485350945766
-4                        0.5618059710992984       12.423840337730162       0.049090391775441215
-4                        -2.8498523081971543      13.907284768211936       0.04734761244426456
-4.000000000000001        -4.000000000000001       14.569536423841065       0.044964499254260965
-4                        -0.5724199012293782      12.879470054301034       0.04699093045514141
-4                        -1.707870031213497       13.350993377483478       0.05039640519600336
-4                        -2.849852308197155       15.23178807947021        0.043628738805099425
-4                        -0.572420055275886       14.203973485871392       0.04826202566106469
-4.000000000000001        4.000000000000001        14.569536423841065       0.04762164871905256
-4                        2.8498523081971543       13.907284768211936       0.045565410784838285
-4                        1.6997046163943086       13.245033112582794       0.04915148631089155
-4                        0.5618052008667522       13.748344250548872       0.0479761199951953
-3.999999999999999        -3.999999999999999       15.894039735099344       0.04085933613677277
-4                        -1.7078700312134956      14.675496688741752       0.04802950757645429
-3.999999999999999        3.999999999999999        15.894039735099344       0.04652601851106806
-4                        2.849852308197155        15.23178807947021        0.044963140517293075
-4                        1.6997046163943095       14.569536423841068       0.04554899369806754
-4                        0.5618050724946624       15.072847662067215       0.048159131573013464
-4                        -2.849852308197156       16.556291390728507       0.04095860232681968
-3.999999999999999        -3.999999999999999       17.21854304635762        0.040348266264981156
-4                        -0.572420080950302       15.528476817181682       0.04993294392112727
-4                        -1.7078700312134958      16.000000000000036       0.04317018309061602
-4                        -0.5724200852293716      16.85298013178198        0.04272232253508915
-4                        -2.8498523081971534      17.88079470198676        0.03850851112689069
-3.999999999999999        3.999999999999999        17.21854304635762        0.039265933940767696
-4                        2.849852308197157        16.556291390728507       0.043725849525292515
-4                        1.6997046163943077       15.894039735099351       0.04387597380619828
-4                        0.5618050510993164       16.3973509900355         0.04834553804043459
-3.999999999999999        -3.999999999999999       18.543046357615896       0.04112812176428027
-4                        -1.7078700312134956      17.32450331125831        0.03751374313170271
-3.999999999999999        3.999999999999999        18.543046357615896       0.03248822973837339
-4                        2.8498523081971534       17.88079470198676        0.037220389090308566
-4                        1.699704616394316        17.218543046357638       0.043235810017681044
-4                        0.5618050475334257       17.72185430407879        0.04292062219878499
-4                        -0.5724200859425501      18.177483443597243       0.03798066263988802
-4                        -1.7078700312134971      18.649006622516588       0.03767272472375243
-4                        -2.849852308197157       19.205298013245045       0.03817874663883139
-4                        -4                       19.867549668874176       0.035383939847171544
-4                        -0.5724200860614133      19.50198675494835        0.03991639926453375
-4                        -2.849852308197157       20.52980132450333        0.034948114205996195
-4                        -4                       21.192052980132456       0.030680744029069937
-4                        4                        19.867549668874176       0.031985495169209836
-4                        2.849852308197157        19.20529801324504        0.03458875173907284
-4                        1.699704616394313        18.5430463576159         0.03938368704359358
-4                        0.5618050469391092       19.046357615801227       0.03884834619651605
-4                        4                        21.192052980132456       0.02968338228303749
-4                        2.849852308197157        20.529801324503328       0.033792912057207546
-4                        1.6997046163943121       19.867549668874172       0.03993422718251206
-4                        0.5618050468400577       20.370860927136857       0.04022616531202468
-4                        -1.707870031213497       19.973509933774857       0.03857982349034759
-4                        -0.5724200860812241      20.826490066222092       0.036916887172005246
-4                        -1.7078700312134965      21.298013245033133       0.0330394371753156
-4                        -2.849852308197157       21.854304635761594       0.030154142986073707
-3.999999999999999        -3.999999999999999       22.516556291390728       0.02937471621860449
-4                        1.699704616394315        21.19205298013246        0.03667207398667191
-4                        2.849852308197158        21.85430463576159        0.03155982072741662
-3.999999999999999        3.999999999999999        22.516556291390728       0.028908007891762705
-3.999999999999999        3.999999999999999        23.841059602649004       0.02416616316515345
-4                        2.8498523081971543       23.178807947019866       0.02975487613119375
-4                        1.699704616394314        22.51655629139073        0.03238747257419983
-4                        0.5618050468235483       21.695364238408036       0.0334971948691998
-4                        -0.5724200860845257      22.15099337748294        0.03494983932642025
-4                        0.5618050468207958       23.019867549668472       0.03280659096504145
-4                        -1.7078700312134971      22.622516556291405       0.032118061026267686
-4                        -2.8498523081971534      23.178807947019862       0.03026606465380743
-3.999999999999999        -3.999999999999999       23.841059602649004       0.024084738647689796
-4                        -2.8498523081971565      24.503311258278153       0.02579158122639828
-4                        -1.7078700312134965      23.947019867549677       0.029735258777381837
-4                        -0.5724200860850763      23.47549668874165        0.032330723733781326
-4                        2.8498523081971565       24.50331125827815        0.026177159092816166
-4                        4                        25.165562913907284       0.022585917193824703
-4                        -4                       25.165562913907284       0.02070853570158193
-4                        1.6997046163943104       23.84105960264902        0.03197002946424458
-4                        0.5618050468203366       24.34437086092709        0.03134374072068711
-4                        -2.8498523081971543      25.82781456953642        0.025481020469911384
-4                        -4                       26.490066225165563       0.020811203981867997
-4                        -1.7078700312134956      25.271523178807964       0.02657722168566486
-4                        -0.5724200860851684      24.800000000000004       0.031895240217578676
-4                        0.5618050468202612       25.66887417218543        0.028311810796273568
-4                        1.6997046163943106       25.165562913907294       0.027548504647764264
-4                        4                        26.490066225165563       0.01990334688486718
-4                        2.8498523081971543       25.82781456953642        0.024742681889054968
-4                        -0.5724200860851827      26.124503311258284       0.027713719478157775
-4                        -1.7078700312134958      26.596026490066226       0.027366502332525355
-4                        -2.8498523081971534      27.15231788079471        0.024174412138615816
-4                        -4                       27.81456953642384        0.019890739257529644
-4                        -2.84985230819716        28.47682119205298        0.019991605295873554
-4                        -4                       29.139072847682122       0.01541194691952586
-4                        0.5618050468202505       26.99337748344373        0.023427065850836686
-4                        1.6997046163943124       26.490066225165577       0.024186820485003452
-4                        1.699704616394315        27.81456953642385        0.021277284341895953
-4                        0.5618050468202442       28.31788079470201        0.027281293950023395
-4                        2.8498523081971543       27.152317880794712       0.02208068533257089
-4                        4                        27.81456953642384        0.02124786915184891
-4                        4                        29.139072847682122       0.02078630790429454
-4                        2.8498523081971605       28.47682119205298        0.02013088418620716
-4                        2.8498523081971516       29.801324503311267       0.017988707131075008
-4                        4                        30.4635761589404         0.01737093913069791
-4                        -1.7078700312134958      27.920529801324513       0.024177902916076577
-4                        -0.572420086085186       27.44900662251658        0.02803374888530337
-4                        -0.5724200860851862      28.773509933774854       0.024772819663756773
-4                        1.6997046163943077       29.139072847682115       0.020149903356597828
-4                        -1.7078700312134965      29.245033112582796       0.02062399025596443
-4                        -2.849852308197148       29.801324503311257       0.018621321682188146
-4                        -4                       30.4635761589404         0.016167397873680014
-4                        -0.5724200860851865      30.09801324503314        0.02196461546010812
-4                        0.5618050468202433       29.642384105960275       0.022964227740599256
-4                        1.6997046163943068       30.46357615894041        0.01770886540215712
-4                        2.8498523081971543       31.125827814569554       0.019470702002806272
-4                        4                        31.78807947019868        0.015890093690075758
-4                        2.849852308197158        32.45033112582782        0.018436060575749032
-4                        4                        33.11258278145696        0.013526590198637856
-4                        -1.7078700312134947      30.569536423841082       0.02276692507665673
-4                        -2.849852308197157       31.125827814569544       0.01833954081990809
-4                        -4                       31.78807947019868        0.016546338395473887
-4                        0.5618050468202451       30.96688741721858        0.019064658663986593
-4                        -0.5724200860851862      31.422516556291413       0.019478464156599887
-4                        -1.7078700312134956      31.89403973509937        0.0173600107622446
-4                        -2.849852308197157       32.45033112582783        0.016117863180487812
-4                        -4                       33.11258278145696        0.016248785553171895
-4                        4                        34.437086092715234       0.013076350766135595
-4                        2.849852308197155        33.774834437086085       0.015755218465412255
-4                        1.699704616394314        31.78807947019868        0.020781183352211425
-4                        1.699704616394314        33.112582781456965       0.018740592017109457
-4                        0.5618050468202478       32.291390728476834       0.019397210360471845
-4                        -0.572420086085186       32.74701986754969        0.01823837225799631
-4                        -1.7078700312134965      33.21854304635764        0.015416965202205419
-4                        -2.8498523081971543      33.774834437086085       0.01546965730848094
-4                        -4                       34.437086092715234       0.014742603645209277
-4                        -2.849852308197157       35.099337748344375       0.013764297066259354
-4                        -4                       35.76158940397351        0.012735344644589683
-4                        2.8498523081971543       35.099337748344375       0.01026224134947082
-4                        4                        35.76158940397351        0.011219538200855061
-4                        2.8498523081971516       36.42384105960266        0.010789895984946072
-4                        4                        37.08609271523179        0.01119588289968635
-4                        0.5618050468202451       33.6158940397351         0.018472872218809895
-4                        -0.5724200860851871      34.07152317880797        0.01614859525268613
-4                        0.5618050468202433       34.9403973509934         0.01617749218859834
-4                        1.6997046163943095       34.43708609271524        0.014604867745124789
-4                        -1.7078700312134971      34.5430463576159         0.014565442075212305
-4                        -1.7078700312134965      35.86754966887419        0.013549628342889197
-4                        1.6997046163943104       35.76158940397352        0.013465051590166708
-4                        -0.5724200860851871      35.396026490066234       0.011743202732314044
-4                        -2.8498523081971507      36.42384105960266        0.01249193928256967
-4                        -4                       37.08609271523179        0.010765030537324883
-4                        0.561805046820246        36.26490066225168        0.012482730198601466
-4                        1.6997046163943121       37.086092715231814       0.010221079299212368
-4                        2.8498523081971623       37.74834437086094        0.008515383028197642
-4                        4                        38.41059602649007        0.008198659306823576
-4                        -1.7078700312134965      37.19205298013246        0.009671415987581753
-4                        -0.5724200860851862      36.72052980132452        0.010658131499881979
-4                        -2.849852308197163       37.74834437086092        0.009569839637098983
-4                        -4                       38.41059602649007        0.01051232419601207
-4                        -1.7078700312134965      38.51655629139075        0.009754232807435008
-4                        -2.8498523081971507      39.0728476821192         0.010711050848290235
-4                        -4                       39.735099337748345       0.011115060433442
-4                        0.561805046820246        37.58940397350996        0.010959475397311935
-4                        1.6997046163943121       38.41059602649007        0.010162054176537655
-4                        4                        39.735099337748345       0.00814742448161339
-4                        2.8498523081971516       39.07284768211922        0.007635783662308704
-4                        0.5618050468202487       38.91390728476824        0.010704737276732497
-4                        -0.5724200860851854      38.045033112582814       0.009013157966816359
-4                        -0.5724200860851847      39.36953642384109        0.010748377825733573
-4                        -1.707870031213495       39.84105960264902        0.010970038941442953
-4                        -2.849852308197157       40.397350993377486       0.009454953967874661
-4.000000000000001        -4.000000000000001       41.05960264900662        0.008773573769872013
-4                        1.6997046163943164       39.73509933774836        0.008201395927118979
-4                        0.5618050468202469       40.23841059602649        0.00978598146698882
-4                        2.8498523081971605       40.397350993377486       0.007123068073829612
-4.000000000000001        4.000000000000001        41.05960264900662        0.006959361407127222
-4                        1.699704616394315        41.05960264900662        0.007719298755970998
-4                        2.8498523081971543       41.721854304635755       0.008470537739682723
-4                        4                        42.384105960264904       0.00734902810887833