% Model:              Cav_Hex_Unif_flux_v5.1 - Base Case.mph
% Version:            COMSOL 5.5.0.359
% Date:               May 16 2022, 15:15
% Dimension:          3
% Nodes:              4636
% Expressions:        1
% Description:        Surface
% x                       y                        z                        Color
2                         2                        0                        0.05433094909673397
1.6451971183516554        2.400000000000001        0                        0.051494393521402476
2.4000000000000004        2.4000000000000004       0                        0.05825848758565449
2.4000000000000004        1.6451971183516787       0                        0.06022225683011476
2                         -2                       0                        0.05694930808934765
2.4000000000000004        -2.4000000000000004      0                        0.05825848758565448
1.645197118351664         -2.4000000000000004      0                        0.05105800035596688
2.400000000000001         -1.6451971183516554      0                        0.06240422265729282
-2                        -2                       0                        0.05498553884488738
-1.6451971183516727       -2.4                     0                        0.051494393521402476
-2.4000000000000004       -2.4000000000000004      0                        0.055640128593040794
-2.4000000000000004       -1.6451971183516787      0                        0.05673111150662985
-2                        1.3333333333333328       0                        0.05454914567945179
-2.400000000000001        0.8563858430271245       0                        0.054112752514016184
-2.400000000000001        1.6451971183516554       0                        0.06196782949185722
-1.3333333333333328       -2                       0                        0.05062160719053126
-0.8563858430271366       -2.400000000000001       0                        0.05367635934858058
-1.9999999999999996       -1.3333333333333333      0                        0.05367635934858056
1.3333333333333333        -1.9999999999999996      0                        0.04756685503248196
2                         -1.3333333333333328      0                        0.05891307733380793
2.400000000000001         -0.8563858430271245      0                        0.06109504316098602
-2                        2                        0                        0.05302176960042712
-2.4000000000000004       2.4000000000000004       0                        0.05302176960042711
-1.6451971183516787       2.4000000000000004       0                        0.051058000355966866
-1.9999999999999996       0.6666666666666664       0                        0.04800324819791759
-1.3333333333333333       1.9999999999999996       0                        0.05149439352140248
1.3333333333333328        2                        0                        0.051930786686838114
0.8563858430271245        2.400000000000001        0                        0.05629471834119426
1.9999999999999996        1.3333333333333333       0                        0.05149439352140248
-0.8563858430271476       2.4000000000000004       0                        0.054549145679451794
2.4000000000000004        0.8563858430271476       0                        0.05367635934858056
0.8563858430271423        -2.4000000000000004      0                        0.04756685503248196
0.666666666666667         -2                       0                        0.04756685503248195
2.1441182163073336E-15    -2.3999999999999995      0                        0.05400365422265728
-2.4000000000000004       -0.8563858430271476      0                        0.06196782949185723
-2.4                      -1.2378986724570495E-14  0                        0.05629471834119425
-1.9999999999999996       6.938893903907228E-18    0                        0.04778505161519976
-0.6666666666666664       -1.9999999999999996      0                        0.05367635934858058
-0.666666666666667        2                        0                        0.055421932010323006
-1.2378986724570495E-14   2.4                      0                        0.059894961956038065
1.9999999999999996        -6.938893903907228E-18   0                        0.045166692622586074
2.4                       1.2378986724570495E-14   0                        0.053021769600427135
1.9999999999999996        -0.6666666666666664      0                        0.051494393521402504
2                         0.666666666666667        0                        0.04974882085966003
0.6666666666666664        1.9999999999999996       0                        0.057167504672065474
-6.938893903907228E-18    -1.9999999999999996      0                        0.04516669262258608
6.938893903907228E-18     1.9999999999999996       0                        0.06087684657826818
-2                        -0.666666666666667       0                        0.05847668416837232
-2                        -1.5467906581302693      0.48436023573739106      0.008626229617654623
-2                        -2                       0.6993006993006993       0.012727440575344626
-2                        -2                       0                        0.008181624619537687
-1.9999999999999996       -1.3333333333333333      0                        0.008987273963845464
-2                        0.9854950363904202       0.5398456058460233       0.007649274142252156
-1.9999999999999996       0.6666666666666664       0                        0.006306491954535702
-2                        1.3333333333333328       0                        0.006368533777539771
-2                        1.5331042872139844       0.46695214314432804      0.008502886091823
-2                        2                        0                        0.008198079458481944
-2                        2                        0.6993006993006993       0.011325536219679357
-2                        1.3650501983379588       1.0765628694962448       0.011168603084721614
-2                        -0.9387819134775094      0.655560393584631        0.011168719066458496
-2                        -0.666666666666667       0                        0.012876932983969752
-1.9999999999999996       6.938893903907228E-18    0                        0.011583656137797932
-2                        0.3333333333333335       0.5972399859632106       0.00978273260304766
-2                        -0.2746188433937594      0.6287052323405429       0.012420849449338363
-2                        -1.4618381261501168      1.0669401072700702       0.012076764928135524
-2                        -2                       1.3986013986013985       0.014677909134340824
-2                        0.6814823994572445       1.0983186364723951       0.009618552356731027
-2                        0.931162528193509        1.5500723640754555       0.009420379352817367
-2                        2                        1.3986013986013985       0.010588112631229371
-2                        1.4270887945533661       1.777807580009244        0.011715326191745873
-2                        0.07957332045228059      1.1377343548604368       0.011619318511043265
-2                        -0.4415884032033146      1.0634696305705904       0.01209666393171276
-2                        -0.8925878367072785      1.4155661681446052       0.012576220149873035
-2                        -1.3928683485856417      1.7482517482517392       0.011677209779462024
-2                        -2                       2.0979020979020975       0.014062228895683074
-2                        -1.3928683485856423      2.447552447552442        0.0144122887867416
-2                        -0.8322414176117614      2.127247752162631        0.01220279190202881
-2                        0.4375143654547809       1.6628349329323222       0.009104532188528502
-2                        0.8734516922030853       2.0961543024278666       0.009735704629888422
-2                        2                        2.0979020979020975       0.012897856908824307
-2                        2                        2.797202797202796        0.012696472671592634
-2                        1.3928683485856423       2.447552447552442        0.013795321625597238
-2                        -0.2432586202459959      1.7704364526325622       0.011835178654129109
-2                        0.31765840403057277      2.313218062714456        0.010782129646971755
-2                        -2                       2.797202797202796        0.013900143672272472
-2                        -0.2674700537808149      2.5620368233435995       0.014672121906252644
-2                        -1.3928683485856448      3.1468531468531404       0.015219176405780438
-2                        -2                       3.4965034965034967       0.013641281342462168
-2                        -0.8043952977651958      2.8196428730508485       0.013892582610664598
-2                        0.8349811804106952       2.7580080486931893       0.012778210061170822
-2                        1.392868348585642        3.1468531468531404       0.012113745380504774
-2                        2                        3.4965034965034967       0.013605490081535153
-2                        0.7857366971712838       3.496503496503489        0.014138476857361066
-2                        0.27073186014168504      3.0298378162571975       0.01448307642653869
-2                        -0.27122003005021955     3.276467906589031        0.012944234155117995
-2                        -0.7943106840168576      3.508357084488978        0.013050887590463855
-2                        -1.3928683485856421      3.8461538461538325       0.014698388992838332
-2                        0.2396884944306046       3.761717135288639        0.013891345996363992
-1.9999999999999996       -1.9999999999999996      4.195804195804195        0.013524832963281398
-1.9999999999999996       1.9999999999999996       4.195804195804195        0.012977949798053159
-2                        1.3928683485856421       3.8461538461538325       0.0129307992311092
-2                        0.7857366971712788       4.195804195804182        0.011777371550137875
-2                        1.3928683485856386       4.545454545454541        0.011200748206232338
-1.9999999999999996       1.9999999999999996       4.895104895104893        0.011997658865487865
-2                        -0.7857366971712819      4.195804195804182        0.014041923497554246
-2                        -0.27310714516346263     3.9785851222218556       0.015102400423367171
-2                        -1.3928683485856386      4.545454545454531        0.013573467872337158
-1.9999999999999996       -1.9999999999999996      4.895104895104893        0.012827678136984837
-2                        0.23876993251597203      4.461451690380269        0.014298777453207697
-2                        -0.27362248289541746     4.678460517942923        0.015163367332988516
-2                        -0.7857366971712776      4.895104895104884        0.01328814907846671
-2                        -1.3928683485856421      5.24475524475524         0.014051805295430611
-2                        -2                       5.594405594405594        0.014606945548649858
-2                        0.23861683886353413      5.160824698979444        0.012782997827923146
-2                        1.3928683485856421       5.24475524475524         0.012107656811647799
-2                        0.785736697171282        4.895104895104884        0.010650387718863806
-2                        2                        5.594405594405594        0.014913196780863938
-2                        -1.3928683485856423      5.944055944055942        0.013601576383171901
-2                        -2                       6.2937062937062915       0.012966911222539027
-2                        -0.2745411292459874      5.378992505166885        0.01334993655172069
-2                        -0.7857366971712824      5.594405594405584        0.01314803216772186
-2                        0.7857366971712834       5.5944055944055835       0.011822497422066902
-2                        2                        6.2937062937062915       0.015062776159026866
-2                        1.392868348585642        5.944055944055942        0.016247529169735788
-2                        -0.2785736697171282      6.0839160839160575       0.013438773708002122
-2                        0.23859132325479537      5.8601374498298835       0.011645989752472751
-2                        0.7857366971712838       6.2937062937062915       0.0160143155130434
-2                        2                        6.9930069930069925       0.009658759588611834
-2                        1.39286834858564         6.6433566433566345       0.01284481602510052
-2                        -0.7857366971712844      6.293706293706281        0.012590193288786264
-2                        -1.3928683485856403      6.6433566433566345       0.013535765844995941
-2                        -2                       6.9930069930069925       0.012641942462638093
-2                        0.23858707065333595      6.559440157722218        0.013988408617170883
-2                        -0.2785736697171285      6.7832167832167665       0.010891524913934565
-2                        -1.39286834858564        7.342657342657343        0.011451065124786218
-2                        -0.7857366971712776      6.993006993006973        0.011699287453392224
-2                        -2                       7.692307692307692        0.009439654840452167
-2                        -1.392868348585643       8.041958041958031        0.011219210845852494
-1.9999999999999991       -1.9999999999999991      8.391608391608388        0.00879899382367273
-2                        1.39286834858564         7.342657342657343        0.009629244271797661
-2                        2                        7.692307692307692        0.0112576467665141
-2                        0.785736697171277        6.993006993006973        0.013191587658706476
-2                        0.7857366971712848       7.6923076923076925       0.01051172720093581
-2                        0.23858636188642857      7.258741191788188        0.010632155205537328
-2                        -0.27857366971712816     7.482517482517465        0.010783299432173885
-2                        -0.7857366971712848      7.6923076923076925       0.01355382928396878
-2                        1.392868348585643        8.041958041958031        0.011619955552564315
-1.9999999999999991       1.9999999999999991       8.391608391608388        0.014070246237204827
-2                        0.238586243758609        7.958041946883093        0.010056777229635022
-2                        0.7857366971712798       8.391608391608374        0.011326291866644633
-2                        1.3928683485856377       8.741258741258735        0.012122068779572608
-2                        -0.7857366971712799      8.391608391608374        0.012589243192363082
-2                        -0.2785736697171277      8.181818181818157        0.012510369047137884
-2                        -1.3928683485856377      8.741258741258735        0.010383665443898024
-2.0000000000000004       2.0000000000000004       9.09090909090909         0.010383884792089331
-2.0000000000000004       -2.0000000000000004      9.09090909090909         0.010145850121568855
-2                        -0.7857366971712776      9.090909090909083        0.010883646936640992
-2                        -1.3928683485856403      9.440559440559444        0.010086984209343166
-2.0000000000000004       -2.0000000000000004      9.79020979020979         0.006856706410252677
-2                        1.39286834858564         9.440559440559444        0.010339155567149273
-2.0000000000000004       2.0000000000000004       9.79020979020979         0.00815087393254488
-2                        -0.27857366971712955     8.881118881118866        0.010204171990669466
-2                        0.23858622407063823      8.65734265548282         0.01192453156403408
-2                        0.7857366971712771       9.090909090909083        0.011698790683350445
-2                        0.23858622078931105      9.356643356333372        0.010415681049924226
-2                        -0.2785736697171268      9.580419580419564        0.009024886798014586
-2                        -1.3928683485856421      10.139860139860135       0.008374856008948816
-1.9999999999999996       -1.9999999999999996      10.48951048951049        0.0065980098384521325
-2                        -0.7857366971712826      9.790209790209781        0.010406022530082076
-2                        0.7857366971712825       9.790209790209781        0.011064653968494568
-1.9999999999999996       1.9999999999999996       10.48951048951049        0.00911392173490857
-2                        1.3928683485856421       10.139860139860135       0.010282727034959228
-2                        -0.2785736697171276      10.279720279720255       0.008290671806438723
-2                        0.23858622024242493      10.055944055892374       0.008754298706458077
-2                        1.3928683485856421       10.839160839160833       0.00908929695533599
-2                        2                        11.188811188811187       0.007041244108011242
-2                        0.7857366971712839       10.489510489510485       0.009341093285442758
-2                        -1.3928683485856417      10.839160839160833       0.010312931358328841
-2                        -2                       11.188811188811187       0.008508993440203743
-2                        -0.7857366971712835      10.48951048951048        0.008855630324456975
-2                        -0.2785736697171285      10.979020979020959       0.007133299966261406
-2                        -0.7857366971712815      11.188811188811181       0.009261462784010957
-2                        -1.3928683485856412      11.538461538461533       0.010858263240891201
-2                        -2                       11.888111888111883       0.008622343140792405
-2                        2                        11.888111888111883       0.005382328752781715
-2                        1.3928683485856421       11.538461538461533       0.006317703880305767
-2                        0.7857366971712834       11.188811188811176       0.00843517013136779
-2                        0.2385862201512765       10.755244755236127       0.006668663489231313
-2                        0.23858622013608421      11.454545454544009       0.007860582756717268
-2                        -0.27857366971712816     11.678321678321668       0.007959088674930314
-2                        -0.7857366971712808      11.888111888111885       0.00900472775793969
-2                        -1.3928683485856395      12.237762237762235       0.009136720726111908
-2                        -2                       12.587412587412583       0.0062536221829532085
-2                        2                        12.587412587412583       0.005478845015417267
-2                        1.3928683485856401       12.237762237762235       0.005555242806985113
-2                        0.7857366971712798       11.88811188811188        0.008333072652173893
-2                        0.23858622013355246      12.153846153845894       0.009148334863894702
-2                        -0.2785736697171277      12.37762237762236        0.00832501680035547
-2                        -1.3928683485856395      12.937062937062926       0.006913265130797365
-2                        0.7857366971712834       12.587412587412578       0.007477805357524157
-2                        1.39286834858564         12.937062937062926       0.005706073012121713
-2                        -2                       13.286713286713281       0.0059357845843204205
-2                        2                        13.286713286713281       0.004652252457362544
-2                        1.3928683485856423       13.636363636363631       0.006015733774893871
-2                        2                        13.986013986013985       0.0065487021786546085
-2                        0.23858622013313058      12.853146853146797       0.008531736361788923
-2                        0.7857366971712811       13.286713286713276       0.007258358982706696
-2                        -0.7857366971712811      12.587412587412572       0.0075327399082605155
-2                        -0.2785736697171277      13.076923076923064       0.006412095277754483
-2                        -0.7857366971712808      13.286713286713276       0.0070918385200793785
-2                        -1.3928683485856417      13.636363636363631       0.008631241985395704
-2                        -2                       13.986013986013985       0.007619127949649034
-2                        0.23858622013306174      13.552447552447527       0.005689130790156286
-2                        0.7857366971712842       13.986013986013972       0.004807503155751583
-2                        1.3928683485856435       14.335664335664323       0.0058551690224748635
-2                        2                        14.68531468531468        0.0049873376043844545
-2                        1.3928683485856403       15.034965034965026       0.0037738998736011886
-2                        2                        15.38461538461538        0.002663238171946172
-2                        -0.7857366971712842      13.986013986013967       0.00775527187383817
-2                        -0.2785736697171276      13.77622377622375        0.005816718730980113
-2                        -1.392868348585643       14.335664335664323       0.006351747907216724
-2                        -2                       14.68531468531468        0.006174329014759695
-2                        -1.3928683485856386      15.034965034965019       0.005615881950627862
-2                        -2                       15.38461538461538        0.007104589465824168
-2                        0.23858622013304842      14.251748251748232       0.003849751586568211
-2                        -0.2785736697171294      14.475524475524448       0.004585708839361083
-2                        -0.7857366971712826      14.68531468531466        0.005253659918946804
-2                        0.785736697171282        14.68531468531466        0.005204567561897194
-2                        0.785736697171278        15.384615384615374       0.0049516334542307845
-2                        -0.7857366971712758      15.384615384615374       0.0046434193494381566
-2                        -1.3928683485856386      15.73426573426573        0.004629246446388073
-2                        -2                       16.08391608391608        0.005055677517190196
-2                        2                        16.08391608391608        0.0036432414093632453
-2                        1.3928683485856386       15.73426573426573        0.0031109632578509225
-2                        1.3928683485856403       16.433566433566433       0.0033621012370910618
-2                        0.7857366971712793       16.083916083916076       0.005024468079277751
-2                        0.23858622013304487      14.951048951048923       0.004127797464465786
-2                        0.23858622013304487      15.650349650349636       0.004202000334803571
-2                        -0.27857366971712955     15.174825174825152       0.0033738229653425228
-2                        -0.2785736697171267      15.87412587412586        0.0043902310129560465
-2                        -0.7857366971712809      16.08391608391607        0.004122214324769189
-2                        -1.3928683485856395      16.433566433566426       0.004364857500233069
-2                        -2                       16.783216783216776       0.005215237718011938
-2                        2                        16.783216783216776       0.003645666106551891
-2                        -0.7857366971712809      16.783216783216776       0.004264796397238959
-2                        -1.3928683485856417      17.13286713286713        0.004689732861498715
-2                        -2                       17.482517482517476       0.004258440394673112
-2                        2                        17.482517482517476       0.003793593082883684
-2                        1.3928683485856421       17.13286713286713        0.0028354650999257787
-2                        -0.2785736697171268      16.57342657342656        0.003287542660789363
-2                        0.23858622013304667      16.349650349650336       0.0048625878709585195
-2                        0.7857366971712829       16.783216783216776       0.004156916062973386
-2                        0.2385862201330471       17.048951048951032       0.0029460868224993244
-2                        -0.2785736697171277      17.272727272727256       0.002887133929112931
-2                        -1.392868348585643       17.832167832167823       0.004055532128075634
-2                        -2                       18.181818181818173       0.0034498109517242617
-2                        -0.7857366971712842      17.48251748251747        0.0040825211948223444
-2                        0.7857366971712825       17.48251748251747        0.0021802657752982425
-2                        2                        18.181818181818173       0.0025403278297557665
-2                        1.392868348585643        17.832167832167826       0.0028176891075179437
-2                        1.39286834858564         18.531468531468526       0.0030955501513468147
-2                        -1.39286834858564        18.53146853146852        0.0034574263494041696
-2                        2                        18.881118881118876       0.002424393373452578
-2                        -2                       18.881118881118876       0.0025711680731924876
-2                        0.2385862201330462       17.748251748251732       0.0026995591738169385
-2                        0.7857366971712834       18.181818181818166       0.0031067593191146593
-2                        -0.27857366971712905     17.972027972027956       0.0023070308314287356
-2                        -0.7857366971712834      18.18181818181816        0.0038310747815997505
-2                        -0.7857366971712794      18.881118881118866       0.0031942459854926615
-2                        -0.2785736697171294      18.671328671328652       0.003058964660592075
-2                        0.23858622013304528      18.44755244755242        0.0030563910446585493
-2                        0.7857366971712811       18.881118881118873       0.003451343954318765
-2                        1.392868348585639        19.23076923076922        0.0027888068494692744
-2                        2                        19.580419580419576       0.002156322430190137
-2                        -1.3928683485856386      19.23076923076922        0.002156141339789057
-2                        -2                       19.580419580419576       0.0023729699694087537
-2                        1.3928683485856417       19.930069930069926       0.0026371677418534673
-2                        2                        20.279720279720273       0.003463618408291536
-2                        -0.7857366971712798      19.580419580419573       0.002841229111211025
-2                        -0.2785736697171276      19.370629370629356       0.002596521732638153
-2                        0.2385862201330453       19.146853146853125       0.003484465839903871
-2                        0.7857366971712789       19.580419580419573       0.0029288548024295935
-2                        0.23858622013304487      19.846153846153825       0.002045492635626566
-2                        -1.3928683485856412      19.930069930069923       0.0022012509871625974
-2                        -2                       20.279720279720273       0.0025864849467290433
-2                        -1.3928683485856386      20.629370629370626       0.0019768274806215604
-2                        -0.7857366971712799      20.279720279720266       0.0025175344671755097
-2                        -0.2785736697171277      20.069930069930063       0.0021563022466628955
-2                        0.7857366971712808       20.27972027972026        0.00287830810051513
-2                        2                        20.979020979020977       0.0034129127589701664
-2                        1.3928683485856386       20.629370629370626       0.0033968656510778073
-2                        1.3928683485856421       21.328671328671323       0.002833998951442441
-2                        -2                       20.979020979020977       0.0026117002381750684
-2                        -0.7857366971712799      20.97902097902098        0.0023316308433331545
-2                        2                        21.678321678321677       0.0037018874304754514
-2                        -0.2785736697171277      20.769230769230752       0.002677275422460759
-2                        0.23858622013304576      20.54545454545453        0.0024275207678850688
-2                        -1.3928683485856412      21.328671328671323       0.0026471772142708503
-2                        -2                       21.678321678321677       0.0020672558088434168
-2                        0.785736697171282        20.97902097902097        0.0027542838687954203
-2                        0.2385862201330462       21.244755244755233       0.0018985175607559865
-2                        0.7857366971712816       21.678321678321673       0.0016447373493788037