% Model:              Cav_Hex_Unif_flux_v5.1 - Base Case.mph
% Version:            COMSOL 5.5.0.359
% Date:               May 16 2022, 15:15
% Dimension:          3
% Nodes:              3538
% Expressions:        1
% Description:        Surface
% x                       y                        z                        Color
0.9577087381171099        1.4                      0                        0.040730028773990685
1.4                       1.4                      0                        0.04145735071638338
1                         1                        0                        0.04636677382753404
0.6000000000000001        1                        0                        0.04873057014031029
0.5096501544693237        1.3999999999999997       0                        0.053821823737059106
0.19999999999999993       1                        0                        0.05309450179466641
1.4                       0.9577087381171091       0                        0.05745843344902258
1                         0.6000000000000001       0                        0.06109504316098602
2.4771851236948805E-15    1.4                      0                        0.06036772121859332
-0.19999999999999996      1                        0                        0.05600378956423718
1.4                       0.5096501544693235       0                        0.06691361870012753
1                         0.19999999999999996      0                        0.05891307733380793
-0.5096501544693198       1.3999999999999997       0                        0.05600378956423718
-0.6000000000000001       1                        0                        0.04582128237073951
1.4                       1.1379786002407855E-15   0                        0.058185755391415246
1                         -0.19999999999999993     0                        0.053821823737059106
-0.9577087381171061       1.4                      0                        0.043639316543561436
-1                        1                        0                        0.042548333629972415
-1.4                      1.4                      0                        0.049094231111506625
1.4000000000000001        -0.5096501544693219      0                        0.06036772121859333
1                         -0.6000000000000001      0                        0.06254968704577142
1.3999999999999997        -0.9577087381171079      0                        0.06327700898816412
-1.4                      0.9577087381171092       0                        0.04800324819791759
-1                        0.6000000000000001       0                        0.0472759262555249
1.4                       -1.4                     0                        0.0752778210376435
1                         -1                       0                        0.06709544918572571
-1.4000000000000001       0.5096501544693219       0                        0.06109504316098602
-1                        0.19999999999999993      0                        0.05673111150662988
0.9577087381171039        -1.4                     0                        0.06473165287294948
0.6000000000000001        -1                       0                        0.04582128237073951
-1.4                      -2.0816681711721685E-16  0                        0.06182236510337871
-1                        -0.19999999999999996     0                        0.05673111150662987
0.5096501544693229        -1.4                     0                        0.05236717985227373
0.19999999999999996       -1                       0                        0.04727592625552488
-1.4                      -0.5096501544693218      0                        0.05236717985227372
-1                        -0.6000000000000001      0                        0.04945789208270296
8.881784197001252E-16     -1.4                     0                        0.06036772121859333
-0.19999999999999993      -1                       0                        0.055276467621844495
-1.4                      -0.9577087381171091      0                        0.045093960428346826
-1                        -1                       0                        0.0480032481979176
-0.5096501544693209       -1.4000000000000001      0                        0.054549145679451815
-0.6000000000000001       -1                       0                        0.050185214025095674
-1.4                      -1.4                     0                        0.03709341906202723
-0.9577087381171041       -1.3999999999999997      0                        0.04363931654356146
-1                        0.7340173538656918       49.730088038997046       0
-1                        1                        49.6124031007752         0
-1                        1                        50                       0
-1                        0.6000000000000001       50                       0
-1                        0.20000000000000015      50                       0
-1                        0.3808114018142772       49.63289641881644        1.5737303200814186E-32
-1                        0.6912419157651544       49.40557003507671        1.8360187067616552E-32
-1                        1                        49.2248062015504         0
-1                        1                        48.83720930232559        0
-1                        0.6629784937357802       49.03100775193799        7.003857210169445E-38
-1                        -0.022780600602922474    49.68706925479916        0
-1                        -0.19999999999999973     50                       0
-1                        0.0978163752242367       49.39544531692569        0
-1                        -0.3972437082768419      49.70385036349801        2.868779229649129E-34
-1.0000000000000002       -0.6                     50.00000000000001        6.679397144623072E-44
-1                        -0.21874600083393259     49.39116109109513        2.868779229315159E-34
-1                        -0.7189281667945755      49.743460099982805       4.007638286773843E-44
-1                        -1                       50                       0
-1                        -0.01382594777116447     49.050579013267665       2.4589536251272944E-34
-1                        0.3619621976317782       49.21812931349965        1.8647064990564766E-32
-1                        1                        48.44961240310078        1.1475119653225039E-33
-1                        0.6629784937357779       48.64341085271319        3.0803282423387975E-25
-1                        0.32595698747155843      48.83720930232559        3.080328245207752E-25
-1                        1                        48.06201550387597        1.147616749559154E-33
-1                        0.6629784937357779       48.25581395348838        1.1475116917260477E-33
-1                        -0.011064518792666346    48.64341085271319        2.27288106997718E-5
-1                        -0.6230074814296211      49.40141173511094        2.4589536251272794E-34
-1                        -0.33865140380458103     48.81861778349908        2.8411013374714753E-5
-1                        -0.3658535326844763      49.126060953236816       0
-1                        -0.660959289872247       49.00907799717847        9.857050375481982E-24
-1                        -1                       49.6124031007752         5.471762140875142E-40
-1                        -1                       49.2248062015504         3.672037413524873E-32
-1                        1                        47.674418604651166       1.0526302418559474E-37
-1                        0.6629784937357802       47.86821705426357        7.010695243047207E-38
-0.9999999999999998       0.9999999999999998       47.28682170542636        0
-1                        0.6629784937357802       47.48062015503877        6.839702676093927E-41
-1                        0.32595698747156043      47.67441860465117        4.341608144004945E-42
-1                        0.32595698747155755      48.06201550387597        8.074895667594716E-20
-1                        0.32595698747155555      48.44961240310079        8.07492647087714E-20
-1                        0.0110645187926659       48.25581395348838        8.074895667594716E-20
-1                        -0.3259569874715553      48.44961240310079        2.8411013374714753E-5
-1                        0.011064518792661016     47.86821705426357        5.515846162029647E-40
-1                        -0.3259569874715575      48.06201550387597        1.1475117088253041E-33
-1                        -0.6629784937357779      48.64341085271319        5.6822026749429515E-6
-1                        -0.6629784937357777      48.25581395348838        1.1475120337111813E-33
-1                        -1                       48.44961240310078        1.4343944024494343E-34
-1                        -1                       48.83720930232559        9.857050412202356E-24
-1                        1                        46.51162790697674        4.4824685811114457E-36
-1                        1                        46.89922480620155        1.7099256690235123E-41
-1                        0.6629784937357777       46.70542635658914        3.760625316570873E-29
-1                        0.32595698747155843      47.28682170542636        1.8360327144727547E-32
-1                        0.6629784937357779       47.09302325581397        1.8360331539236515E-32
-1                        0.32595698747155355      46.89922480620155        1.8360331522137258E-32
-1                        0.011064518792659683     47.48062015503877        7.273863490494423E-41
-1                        0.011064518792666346     47.093023255813975       2.9376299315033613E-31
-1                        -0.3259569874715582      47.28682170542636        2.2950234519159157E-33
-1                        -0.32595698747156027     47.674418604651166       1.7099256690234832E-41
-1                        -0.6629784937357802      47.86821705426357        1.1475117088253041E-33
-1                        -0.6629784937357802      47.480620155038764       6.839702676093925E-41
-1                        -1                       47.674418604651166       1.4343902986278289E-34
-1                        -1                       48.06201550387597        7.523672943703314E-40
-0.9999999999999998       0.9999999999999998       45.736434108527135       3.672205506056315E-32
-1                        1                        46.12403100775194        6.163393877391295E-36
-1                        0.6629784937357802       45.93023255813954        1.1206852834779838E-36
-1                        0.32595698747155916      46.51162790697674        9.663632010467908E-27
-1                        0.6629784937357802       46.31782945736434        3.7606257643782096E-29
-1                        0.011064518792666123     46.70542635658914        2.583966613630598E-18
-1                        0.32595698747156043      46.124031007751945       9.626025757306937E-27
-1                        0.011064518792660351     46.31782945736435        1.0335866464147248E-17
-1                        -0.6629784937357777      47.09302325581397        1.8183048559817228E-4
-1                        -0.32595698747155355     46.89922480620156        2.5839666136305998E-18
-1                        -0.3259569874715589      46.51162790697674        1.2919833068151524E-17
-1                        -0.6629784937357774      46.70542635658914        2.671758857849198E-43
-1                        -1                       46.89922480620155        3.6366097119634456E-4
-0.9999999999999998       -0.9999999999999998      47.28682170542636        3.6366097119634456E-4
-1                        1                        45.348837209302346       2.801542216148443E-37
-1                        0.6629784937357828       45.54263565891474        2.521390198716309E-36
-1                        1                        44.96124031007752        5.60309244755307E-37
-1                        0.6629784937357761       45.15503875968993        4.7002104112477934E-30
-1                        0.3259569874715633       45.736434108527135       3.4211872174758855E-40
-1                        0.325956987471558        45.348837209302346       4.7002101305459944E-30
-1                        0.011064518792659017     45.93023255813954        1.1475296117637575E-33
-1                        0.01106451879265502      45.54263565891475        5.603085100195837E-37
-1                        -0.32595698747156016     46.124031007751945       1.0335866454521222E-17
-1                        -0.3259569874715632      45.736434108527135       5.7781808209271975E-37
-1                        -0.6629784937357799      46.31782945736434        0
-1                        -0.6629784937357802      45.93023255813954        3.585974090080713E-35
-1                        -1                       46.12403100775194        2.330883124353146E-33
-1                        -1                       46.51162790697674        0
-1                        1                        44.573643410852725       6.839702676093932E-41
-1                        0.6629784937357819       44.76744186046513        5.4771056585908345E-40
-1                        1                        44.18604651162792        2.2413716356595084E-36
-1                        0.6629784937357802       44.37984496124033        2.24123378125169E-36
-1                        0.3259569874715622       44.57364341085273        5.6030845157485835E-37
-1                        0.32595698747155916      44.96124031007753        4.700207889857127E-30
-1                        0.011064518792666568     45.15503875968994        0
-1                        0.011064518792657685     44.76744186046513        4.4824766297850074E-36
-1                        -0.32595698747155794     45.348837209302346       1.1750525326701093E-30
-1                        -0.32595698747155916     44.96124031007753        9.400420261122016E-30
-1                        -0.6629784937357828      45.54263565891474        4.928526362792918E-24
-1                        -0.6629784937357761      45.15503875968993        4.928526362792922E-24
-1                        -1                       45.348837209302346       4.928525187740961E-24
-0.9999999999999998       -0.9999999999999998      45.736434108527135       3.585974090079083E-35
-1                        0.662978493735777        43.99224806201551        1.4568033203271212E-34
-0.9999999999999998       0.9999999999999998       43.79844961240311        3.942820153879134E-23
-1.0000000000000002       1.0000000000000002       43.41085271317831        2.7599741051704245E-22
-1                        0.6629784937357802       43.60465116279071        3.942820150207097E-23
-1                        0.325956987471558        43.79844961240311        2.6091395096183672E-45
-1                        0.3259569874715562       44.18604651162793        5.6030845157485835E-37
-1                        0.011064518792662348     44.37984496124033        1.439998256348242E-34
-1                        0.011064518792664346     43.99224806201551        9.180094628179593E-33
-1                        -0.32595698747155794     44.18604651162792        2.841101337471452E-6
-1                        -0.32595698747156027     44.573643410852725       2.841101337471452E-6
-1                        -0.6629784937357819      44.76744186046512        9.400424743571929E-30
-1                        -0.6629784937357802      44.37984496124032        2.841101337471452E-6
-1                        -1                       44.573643410852725       9.052500385120472E-36
-1                        -1                       44.96124031007752        2.719028043043658E-35
-0.9999999999999998       0.9999999999999998       43.02325581395349        2.3657281877477394E-22
-1                        0.6629784937357752       43.217054263565906       7.885640300736922E-23
-1                        1                        42.63565891472869        2.406506439354004E-27
-1                        0.662978493735781        42.82945736434109        1.2032532196770704E-27
-1                        0.32595698747155577      43.02325581395349        2.3113407613385722E-36
-1                        0.3259569874715553       43.410852713178315       3.599981747776727E-35
-1                        0.01106451879266146      43.60465116279072        9.21602454387879E-33
-1                        0.01106451879267012      43.217054263565906       8.467141799543882E-14
-1                        -0.32595698747155794     43.79844961240311        1.971410076014386E-23
-1                        -0.3259569874715554      43.410852713178315       1.8800831557649854E-29
-1                        -0.662978493735777       43.99224806201551        1.9714100750963767E-23
-1                        -0.6629784937357802      43.6046511627907         3.0805162507433235E-25
-0.9999999999999998       -0.9999999999999998      43.79844961240311        6.160656484855491E-25
-1                        -1                       44.18604651162792        7.004283021737409E-38
-1                        1                        42.24806201550388        4.213256848473846E-37
-1                        0.6629784937357802       42.441860465116285       3.3074772654467817E-16
-1.0000000000000002       1.0000000000000002       41.860465116279094       1.4007764724548638E-37
-1                        0.6629784937357843       42.05426356589149        8.878441679598302E-8
-1                        0.32595698747156243      42.24806201550388        3.3074788425748417E-16
-1                        0.32595698747156177      42.635658914728694       3.3074772654467817E-16
-1                        0.011064518792661904     42.82945736434109        1.0583927250415525E-13
-1                        0.011064518792658795     42.441860465116285       9.753849935464038E-33
-1                        -0.3259569874715558      43.02325581395349        1.0583927250415525E-13
-1                        -0.3259569874715599      42.635658914728694       2.125054144035259E-14
-1                        -0.6629784937357752      43.217054263565906       1.880097499647666E-29
-1                        -0.662978493735781       42.82945736434108        8.268694149322004E-17
-0.9999999999999998       -0.9999999999999998      43.02325581395349        9.857050375983922E-24
-1.0000000000000002       -1.0000000000000002      43.41085271317831        3.0803282474481094E-25
-1                        1                        41.47286821705428        8.075881372632265E-20
-1                        0.662978493735777        41.666666666666686       8.878441679606377E-8
-1                        1                        41.08527131782948        3.307477265446841E-16
-1                        0.662978493735777        41.279069767441875       8.075885238083232E-20
-1                        0.32595698747155466      41.472868217054284       2.1167854498898E-14
-1                        0.32595698747156177      41.860465116279094       8.878441679598318E-8
-1                        0.011064518792653244     42.05426356589149        1.5771280601746399E-22
-1                        0.011064518792667233     41.66666666666669        3.2299582670378824E-19
-1                        -0.3259569874715609      41.860465116279094       3.2299582670386195E-19
-1                        -0.32595698747156415     42.24806201550389        1.0098130930878572E-31
-1                        -0.6629784937357802      42.441860465116285       8.26869316409827E-17
-1                        -0.6629784937357843      42.05426356589149        2.6459818123634396E-15
-1                        -1                       42.24806201550388        1.3229909061871361E-15
-1                        -1                       42.63565891472869        1.47855755706105E-23
-1.0000000000000002       1.0000000000000002       40.69767441860467        3.4108359300040855E-16
-1                        0.662978493735781        40.89147286821707        2.020695326973816E-20
-1                        1                        40.31007751937987        3.100767822118047E-17
-1                        0.662978493735781        40.50387596899227        2.0671831484370937E-17
-1                        0.6629784937357752       40.11627906976746        1.0837962175227798E-11
-1                        0.3259569874715622       40.69767441860467        1.3121951886124537E-18
-1                        0.32595698747155843      41.08527131782947        2.1169166669443985E-14
-1                        0.011064518792658351     41.279069767441875       2.1167854498859504E-14
-1                        0.01106451879265924      40.89147286821708        1.2922999647088979E-18
-1                        0.011064518792665012     40.503875968992276       3.203547388309182E-22
-1                        -0.3259569874715558      41.47286821705428        3.2299582671318865E-19
-1                        -0.3259569874715622      41.08527131782948        2.8411013374727963E-6
-1                        -0.6629784937357752      41.666666666666686       2.6459819700702296E-15
-1                        -0.662978493735781       41.279069767441875       1.7101928449092652E-39
-1                        -1                       41.47286821705428        4.731384180231296E-22
-1.0000000000000002       -1.0000000000000002      41.860465116279094       6.614955004033181E-15
-1                        1                        39.92248062015505        1.083794150341649E-11
-1                        1                        39.53488372093024        1.291983545059291E-18
-1                        0.6629784937357779       39.72868217054265        1.0837942795399338E-11
-1                        0.6629784937357802       39.341085271317844       9.091524279908759E-5
-1                        0.3259569874715533       39.922480620155056       2.583966690639097E-18
-1                        0.32595698747155577      40.310077519379874       2.58397162397906E-18
-1                        0.011064518792670341     40.11627906976746        2.5839715427577054E-18
-1                        0.01106451879266701      39.72868217054265        3.551376673494678E-7
-1                        -0.3259569874715545      40.31007751937987        6.016266098330647E-28
-1                        -0.3259569874715589      40.69767441860468        2.8411013374727967E-6
-1                        -0.662978493735781       40.89147286821707        2.8411013374727963E-6
-1                        -0.6629784937357781      40.50387596899227        5.291964413355887E-15
-1                        -0.662978493735775       40.11627906976746        5.835450980898147E-21
-1.0000000000000002       -1.0000000000000002      40.69767441860467        5.291963628412441E-15
-1                        -1                       41.08527131782948        1.4169509914755304E-23
-1                        1                        39.147286821705436       1.6149822141294852E-19
-1                        1                        38.75968992248063        4.849668785020642E-19
-1                        0.662978493735781        38.953488372093034       1.6921702270627484E-28
-1                        0.662978493735777        38.56589147286823        1.9976629253368276E-7
-1                        0.3259569874715609       39.14728682170544        9.09152427990863E-5
-1                        0.32595698747155755      39.53488372093024        9.09152427990863E-5
-1                        0.011064518792661238     39.34108527131784        3.5513766734946906E-7
-1                        0.011064518792660129     38.95348837209304        5.549026050074783E-9
-1                        -0.3259569874715573      39.53488372093024        3.5513766735015484E-7
-1                        -0.3259569874715531      39.922480620155056       6.523050941730738E-19
-1                        -0.6629784937357777      39.72868217054265        1.6934354128562339E-13
-1                        -0.6629784937357802      39.341085271317844       1.6934416835174007E-13
-1                        -1                       39.92248062015505        6.773714190347934E-13
-1                        -1                       40.31007751937987        1.0583928826712066E-14
-1                        1                        38.37209302325582        2.0502664781048152E-20
-1                        1                        37.984496124031025       5.418970751707977E-12
-1                        0.6629784937357828       38.17829457364342        1.9976493779098443E-7
-1                        0.6629784937357802       37.790697674418624       1.136995437593554E-5
-1                        0.32595698747156         38.37209302325582        1.9976629253628665E-7
-1                        0.32595698747155843      38.75968992248063        1.354745604984288E-12
-1                        0.011064518792665234     38.56589147286823        5.635729595707373E-9
-1                        0.01106451879265502      38.17829457364342        8.670354305401561E-11
-1                        -0.32595698747155777     38.75968992248063        5.549026070422269E-9
-1                        -0.3259569874715602      39.14728682170544        4.195222246369952E-20
-1                        -0.6629784937357799      38.953488372093034       3.229970589857906E-19
-1                        -0.6629784937357768      38.56589147286823        2.067299522770656E-17
-1                        -1                       39.147286821705436       2.2609707869645727E-18
-1                        -1                       39.53488372093024        1.6934549439793264E-13
-1                        1                        37.59689922480622        1.109805209949821E-8
-0.9999999999999998       0.9999999999999998       37.20930232558142        6.615011701981458E-16
-1                        0.6629784937357779       37.40310077519382        5.549026049759475E-9
-1                        0.6629784937357808       37.01550387596902        1.3257465629153778E-15
-1                        0.32595698747155666      37.59689922480622        1.1364405349885832E-5
-1                        0.3259569874715633       37.98449612403103        1.1364405349885793E-5
-1                        0.011064518792660129     37.79069767441864        4.289911679547E-20
-1                        0.011064518792665456     37.40310077519382        1.818304855981724E-4
-1                        -0.32595698747155805     38.37209302325582        8.670356368282106E-11
-1                        -0.3259569874715647      37.98449612403103        5.544816501269012E-24
-1                        -0.6629784937357825      38.17829457364342        2.1675883006831906E-11
-1                        -0.6629784937357802      37.790697674418624       2.1167854583270587E-14
-1                        -1                       38.37209302325582        4.335176601618721E-11
-1                        -1                       38.75968992248063        3.2425752934941973E-19
-1                        1                        36.82170542635661        2.116785463688017E-14
-1                        1                        36.4341085271318         4.0382857739812935E-19
-1                        0.6629784937357772       36.62790697674421        2.785883441461613E-18
-1                        0.6629784937357808       36.240310077519396       2.645981830847712E-14
-1                        0.3259569874715571       36.82170542635661        1.3257768055633025E-15
-1                        0.3259569874715589       37.20930232558142        1.322996150129612E-15
-1                        0.011064518792661016     37.01550387596902        2.219610419899617E-8
-1                        0.011064518792665234     36.62790697674421        1.8191928085390245E-4
-1                        -0.3259569874715566      37.59689922480622        1.8183048561934022E-4
-1                        -0.3259569874715589      37.20930232558142        1.8256295716374634E-4
-1                        -0.6629784937357777      37.40310077519382        5.482474318440286E-12
-1                        -0.6629784937357808      37.01550387596902        7.102754666669667E-7
-1                        -1                       37.59689922480622        5.41897075612533E-12
-1                        -1                       37.984496124031025       6.502764902175864E-11
-1                        1                        36.046511627906995       1.7756883392271364E-7
-0.9999999999999998       0.9999999999999998       35.658914728682184       1.7756883392271364E-7
-1                        0.6629784937357772       35.85271317829459        2.929885754432808E-6
-1                        0.6629784937357808       35.46511627906979        2.7121314409784444E-12
-1                        0.3259569874715571       36.046511627906995       2.841101364013957E-6
-1                        0.32595698747155866      36.4341085271318         1.0864443029012739E-11
-1                        0.011064518792661016     36.240310077519396       1.0838644665986178E-11
-1                        0.011064518792665456     35.85271317829459        4.182798423987454E-17
-1                        -0.32595698747155866     36.4341085271318         1.8191927001629397E-4
-1                        -0.3259569874715571      36.82170542635661        1.826517415438294E-4
-1                        -0.6629784937357772      36.62790697674421        1.746373835836085E-13
-1                        -0.6629784937357808      36.240310077519396       6.936285998861891E-10
-1                        -1                       36.82170542635661        3.3868567198174923E-13