% Model:              Cav_Hex_Unif_flux_v5.1 - Base Case.mph
% Version:            COMSOL 5.5.0.359
% Date:               May 16 2022, 15:14
% Dimension:          3
% Nodes:              2711
% Expressions:        1
% Description:        Surface
% x                       y                        z                        Color
0.9000000000000004        -0.5893296300533294      0                        0.0027638233810922245
0.9000000000000002        -0.9000000000000002      0                        0.003709341906202723
0.6758991604291763        -0.6818947890086712      0                        0.003636609711963453
0.589329630053329         -0.9000000000000002      0                        0.0030547521580493
0.6937841581024305        0.7221794273696616       0                        0.003316588057310669
0.9000000000000002        0.9000000000000002       0                        0.003927538488920529
0.9000000000000002        0.589329630053329        0                        0.002618358992613685
0.589329630053331         0.9000000000000001       0                        0.004218467265877606
0.6429787372946103        0.5668337503964518       0                        0.0026183589926136856
0.6871830740220647        -0.42942039362872        0                        0.00225469802141734
0.9000000000000002        -0.2923547744504526      0                        0.0029092877695707626
0.5                       -0.5                     0                        0.003163850449408203
0.6969657101081116        0.3876445799798537       0                        0.0032729487407671064
0.9000000000000002        0.29235477445045255      0                        0.003782074100441989
0.5                       0.5                      0                        0.0019637692444602643
0.6836792529949159        0.09923472482597129      0                        0.0036781709658144624
0.9000000000000002        -2.3245294578089215E-16  0                        0.00378207410044199
0.6945998561946013        -0.17331312739205074     0                        0.003272948740767107
0.3923107138266483        -0.7013359050164196      0                        0.0035638775177241834
0.29235477445045255       -0.9000000000000002      0                        0.0037820741004419914
0.4597144096173516        0.6875023040137753       0                        0.002992410277272784
0.292354774450452         0.9000000000000001       0                        0.0040730028773990675
0.5                       -0.29999999999999993     0                        0.0027638233810922228
0.3                       -0.5000000000000001      0                        0.003345680935006376
0.29999999999999993       0.5                      0                        0.003491145323484914
0.5                       -0.09999999999999996     0                        0.002618358992613685
0.5000000000000001        0.09999999999999994      0                        0.002400162409895879
0.5000000000000001        0.3                      0                        0.004073002877399067
0.10000898552300573       -0.6845725445214315      0                        0.003615829085037947
-2.3245294578089215E-16   -0.9000000000000002      0                        0.003927538488920528
0.16768209247720045       0.6945441599626757       0                        0.00378207410044199
-3.365363543395006E-16    0.9000000000000001       0                        0.003927538488920529
0.09999999999999994       -0.5000000000000001      0                        0.0034911453234849135
0.09999999999999996       0.5                      0                        0.003927538488920528
-0.1733535788632017       -0.6969593991919008      0                        0.0025456267983744165
-0.2923547744504526       -0.9000000000000002      0                        0.0027638233810922236
-0.09999999999999996      -0.5                     0                        0.0029092877695707617
-0.4174703328164362       -0.6911283763392955      0                        0.0031274843522885692
-0.5893296300533294       -0.9000000000000004      0                        0.004218467265877605
-0.29999999999999993      -0.5                     0                        0.0029092877695707626
-0.10668630969886467      0.6790653003497988       0                        0.0029300683964962665
-0.2923547744504523       0.9000000000000002       0                        0.003636609711963453
-0.09999999999999994      0.5000000000000001       0                        0.0024001624098958776
-0.6807002337862077       -0.6803399008622184      0                        0.004509396042834681
-0.9000000000000002       -0.9000000000000002      0                        0.004800324819791757
-0.9000000000000002       -0.5893296300533319      0                        0.004800324819791759
-0.5                      -0.5                     0                        0.0034911453234849144
-0.3902264008543796       0.6980992942694024       0                        0.0028365555753314922
-0.5893296300533308       0.9000000000000004       0                        0.0029092877695707626
-0.9000000000000001       0.5893296300533301       0                        0.0039275384889205294
-0.9000000000000002       0.9000000000000002       0                        0.0028365555753314944
-0.675539068992048        0.6848230808494363       0                        0.003200216546527838
-0.3                      0.5000000000000001       0                        0.002327430215656609
-0.7056647616171544       -0.4012391688479755      0                        0.004218467265877605
-0.9000000000000002       -0.2923547744504521      0                        0.004218467265877606
-0.5000000000000001       -0.3                     0                        0.0030547521580492985
-0.6935814078214282       0.4176015287053222       0                        0.003854806294681259
-0.9000000000000002       0.2923547744504526       0                        0.003200216546527838
-0.5                      0.5                      0                        0.004036636780279431
-0.681626811212718        -0.100781543403762       0                        0.003927538488920529
-0.9000000000000002       4.683753385137379E-16    0                        0.004218467265877606
-0.696451866858304        0.1697357326540282       0                        0.003563877517724183
-0.5000000000000001       -0.09999999999999994     0                        0.0026183589926136847
-0.5                      0.29999999999999993      0                        0.004363931654356142
-0.5                      0.09999999999999996      0                        0.0034911453234849135
-0.5000000000000001       -0.3                     25.000000000000004       0
-0.5                      -0.3059293051210753      24.871113759064436       1.941822757430595E-13
-0.5000000000000001       -0.09999999999999994     25.000000000000004       0
-0.5                      -0.5                     25                       1.3034887570597621E-13
-0.5                      0.09999999999999996      25                       0
-0.5                      0.0012474629403731452    24.824478615266376       2.769162404118724E-13
-0.5                      -0.15247293615605728     24.80153289283518        3.322994884942469E-13
-0.5                      -0.07376939027217244     24.658634479534943       2.769162404118724E-13
-0.5                      0.29999999999999993      25                       0
-0.5                      0.3040220343766734       24.871348772487053       0
-0.5                      0.5                      25                       0
-0.5                      0.15346998629840036      24.803901844764784       0
-0.5                      0.08319120199263164      24.686534954738836       0
-0.5                      -0.5                     24.77064220183486        1.941822757430595E-13
-0.5                      -0.283114873984196       24.65511266611272        1.3217621789121298E-10
-0.5                      0.5                      24.77064220183486        0
-0.5                      0.27066221996164047      24.653548588322643       0
-0.5                      0.5                      24.541284403669728       1.3244817934865235E-13
-0.5                      0.06434573103491703      24.492111245805432       1.0535891687397063E-11
-0.5                      -0.1425296649837543      24.51419726241842        3.588009914649096E-8
-0.5                      -0.3071028528123615      24.42838417652497        3.005440522874501E-8
-0.5                      -0.5                     24.541284403669728       3.0819660902895213E-10
-0.5                      -0.5                     24.31192660550459        2.2430215473361413E-13
-0.5                      -0.11300702634461765     24.336745133343392       3.2550108442595327E-8
-0.5                      -0.30396555156160077     24.21103898810095        2.6502501226742606E-9
-0.5                      0.5                      24.31192660550459        2.352609229468744E-7
-0.5                      0.2886176771805674       24.411539039725046       1.2291873635296573E-11
-0.5                      -0.10379158765201787     24.12406149031004        2.650174570901086E-9
-0.5                      0.08845885869414172      24.26570758672937        1.3636838023003022E-11
-0.5                      0.29647374785642233      24.18224435843907        1.176318064378249E-7
-0.5                      0.09811461008957889      24.047544252753248       1.3449643877064469E-12
-0.5                      0.5                      24.082568807339452       2.352609229468744E-7
-0.5                      -0.5                     24.082568807339452       2.782394680793957E-13
-0.5                      -0.1003613062873503      23.898497762368613       1.4875038155887824E-13
-0.5                      -0.300522748359758       23.985536698837844       8.490539258642536E-13
-0.5                      -0.5                     23.853211009174313       1.7530003672847123E-11
-0.5                      -0.3001614484438031      23.75676337938257        8.488720069378925E-12
-0.5                      -0.10006021771455875     23.66962730290241        3.605699743551328E-7
-0.5                      -0.30010126895762        23.52750108258405        1.613626825197752E-7
-0.5                      0.09982159268566172      23.819733686342378       1.992113318197021E-7
-0.5                      0.5                      23.853211009174313       5.799263270807924E-10
-0.5                      0.30044589770329         23.967889908256883       2.899631635403962E-10
-0.5                      0.10016630749956734      23.590731227876073       1.992113318197021E-7
-0.5                      0.30044589770329         23.738532110091743       3.010299428786974E-10
-0.5                      -0.3000914620421111      23.29814773080317        2.1911611972420607E-12
-0.5                      -0.1000100362857603      23.440350727853758       1.6135864467079616E-7
-0.5                      -0.10000167271429358     23.211006466874704       9.508428142784683E-15
-0.5                      0.10023379625431172      23.36144889761737        3.344108352248573E-8
-0.5                      0.30044589770329105      23.5091743119266         2.2494932592344107E-10
-0.5                      0.10024671709439581      23.132106384873858       3.350859219006404E-8
-0.5                      0.30044589770329155      23.279816513761464       3.4728327224601486E-8
-0.5                      0.5                      23.394495412844034       2.0949813903654016E-9
-0.5                      0.5                      23.62385321100917        6.375816441230933E-11
-0.5                      -0.5                     23.394495412844034       7.668407637831089E-12
-0.5                      -0.5                     23.62385321100917        1.9819285165049655E-11
-0.5                      -0.5                     23.165137614678898       1.3257320975219747E-14
-0.5                      -0.10000027878571593     22.98165092490725        2.8214948485156825E-12
-0.5                      0.10024914935345874      22.90275158551853        9.941649437379218E-14
-0.5                      -0.3000911655493217      23.068721850641044       2.142081632963951E-10
-0.5                      -0.30009914409262983     22.838939767110205       2.1419512018508812E-10
-0.5                      -0.10000004646428609     22.75229350277506        1.5409830451447656E-10
-0.5                      0.5                      23.165137614678898       2.0533485984966262E-9
-0.5                      0.30044589770329105      23.050458715596328       2.6124778242934673E-10
-0.5                      0.10026391328724926      22.674130571488977       2.076600174067743E-10
-0.5                      0.5                      22.935779816513758       1.157926135050701E-12
-0.5                      0.300445897703292        22.821100917431192       5.2745687578967515E-11
-0.5                      0.30044589770329105      22.591743119266056       6.893741558206347E-9
-0.5                      -0.5                     22.935779816513758       4.2279235375204444E-10
-0.5                      0.5                      22.706422018348622       1.36803596906281E-8
-0.5                      -0.5                     22.706422018348622       1.5883760425935525E-12
-0.5                      -0.3001971051495852      22.61740289059992        4.101599668743862E-8
-0.5                      -0.09991413518608372     22.527353022046245       1.9695950101448515E-9
-0.5                      -0.30004954724265587     22.382772675995614       6.779864910236762E-8
-0.5                      0.10027371295425214      22.445272701603297       2.0733679427547534E-12
-0.5                      0.30044589770329044      22.36238532110092        3.4353250233022075E-7
-0.5                      -0.0998868769710606      22.299396869293037       2.6843153900797206E-8
-0.5                      0.10028758118882641      22.21662730642456        7.900185731113649E-9
-0.5000000000000001       0.5000000000000001       22.47706422018349        6.884020426904406E-7
-0.5                      0.30044589770329105      22.13302752293578        7.914533695708184E-9
-0.5                      0.10028623318083252      21.987200135729235       1.0331286134434507E-8
-0.5                      0.30044589770329         21.90366972477064        9.933872612141904E-12
-0.5000000000000001       -0.5000000000000001      22.47706422018349        8.203199337487724E-8
-0.5000000000000001       0.5000000000000001       22.24770642201835        6.747515230127411E-7
-0.5                      0.5                      22.018348623853214       6.8038218146693165E-15
-0.5000000000000001       -0.5000000000000001      22.24770642201835        1.171417814713136E-11
-0.5                      -0.0999223810972183      22.068212707591602       8.650286392563119E-9
-0.5                      -0.30013433733706174     22.160278422192444       2.5033548666626334E-8
-0.5                      -0.5                     22.018348623853214       2.5754121951101727E-8
-0.5                      -0.09989981072080546     21.840015856703836       9.444493727143224E-8
-0.5                      -0.3000990884621637      21.921508664492528       9.862889452146408E-8
-0.5                      -0.3000908310345468      21.692575603092205       8.58558442757301E-8
-0.5                      0.10029107759193989      21.758091516552835       9.567430282296975E-12
-0.5                      -0.30008945479080174     21.463288594397277       1.2281855120716512E-12
-0.5                      -0.09989444337170858     21.610934137470057       9.314998688859453E-10
-0.5                      0.30044589770329044      21.6743119266055         1.3611586385835746E-9
-0.5                      0.10029220611796252      21.52879176576322        4.1850752901251886E-8
-0.4999999999999999       0.4999999999999999       21.55963302752293        2.9192959349348577E-9
-0.5                      0.5                      21.78899082568807        2.0588075103050606E-9
-0.4999999999999999       -0.4999999999999999      21.55963302752293        2.6630911944485126E-12
-0.5                      -0.5                     21.78899082568807        2.574451739373326E-8
-0.5                      -0.5                     21.33027522935779        1.0057571241878507E-11
-0.5                      -0.09989328120911356     21.38163611708172        3.4055994145794006E-8
-0.5                      -0.3000892254158758      21.23394259447874        8.575956778133834E-8
-0.5                      0.30044589770329044      21.444954128440365       4.285815897130291E-8
-0.5                      0.5                      21.33027522935779        3.0423326274063844E-9
-0.5                      0.10029244772655443      21.29944639508505        1.254798103969472E-7
-0.5                      0.300445897703292        21.215596330275222       6.452872336807659E-8
-0.5                      0.10029249691484443      21.07009112698853        1.1590246251691506E-7
-0.5                      -0.09989304291442402     21.152290575983283       1.7215741739737132E-7
-0.5                      -0.3000891871865602      21.004586762688298       8.707482855976526E-8
-0.5                      0.30044589770329105      20.98623853211009        6.321659160597072E-8
-0.5                      0.10029250659959767      20.84073382697164        1.680559563028729E-6
-0.5                      -0.09989299576512357     20.922935203013296       1.6824274148559479E-6
-0.5                      0.300445897703292        20.756880733944957       7.375893093107743E-8
-0.5000000000000001       0.5000000000000001       21.10091743119266        1.0361766197012724E-12
-0.5000000000000001       -0.5000000000000001      21.10091743119266        1.8566090467152095E-9
-0.5                      0.5                      20.87155963302752        1.3160884131634884E-7
-0.5                      -0.5                     20.87155963302752        2.7319192502829264E-9
-0.5                      -0.30008918081498037     20.775229292252316       1.5831314280564555E-9
-0.5                      -0.5                     20.642201834862387       8.840801406226576E-10
-0.5                      -0.30008917975304605     20.545871548708718       1.1064354920978937E-7
-0.5                      0.5                      20.642201834862387       1.4611197856613938E-7
-0.5                      0.10029250846150828      20.611376124576235       3.1619251644261386E-12
-0.5                      -0.09989298666798174     20.693577872772476       1.68102667107495E-6
-0.5                      0.30044589770329044      20.527522935779814       7.453765624225313E-9
-0.5                      0.10029250881312424      20.382018344496892       1.885904199143747E-10
-0.5                      -0.09989298494530308     20.464220163215582       1.5709626200880512E-11
-0.5                      0.5                      20.412844036697248       1.2124821609459365E-9
-0.5                      0.30044589770329155      20.29816513761468        5.1657539363480896E-8
-0.5                      -0.5                     20.412844036697248       2.2877661802114515E-7
-0.5                      -0.09989298462377531     20.23486238158863        2.6088172477524714E-6
-0.5000000000000001       -0.5000000000000001      20.18348623853211        8.048873431952028E-8
-0.5                      -0.30008917957605596     20.31651375964717        2.5941633040603234E-7
-0.5                      -0.30008917954655795     20.087155962999294       1.4746839972721122E-7
-0.5                      -0.09989298456445161     20.005504586474878       2.572410907463755E-6
-0.5000000000000001       0.5000000000000001       20.18348623853211        4.949401698405002E-9
-0.5                      0.10029250887860963      20.152660549700084       2.553219710009778E-6
-0.4999999999999999       0.4999999999999999       19.95412844036697        1.972519435629677E-8
-0.5                      0.30044589770328956      20.068807339449542       7.476071133389143E-8
-0.5                      0.5                      19.724770642201833       7.743921526186812E-9
-0.5                      0.30044589770329155      19.839449541284402       2.6015843419485734E-8
-0.5                      0.30044589770329155      19.610091743119266       2.419420946697893E-10
-0.5                      0.1002925088906711       19.923302752155337       9.239305728301385E-8
-0.5                      0.10029250889287278      19.69394495410343        1.2790341089462778E-9
-0.5                      -0.3000891795416416      19.857798165087036       4.830801146257747E-6
-0.5                      -0.09989298455360826     19.776146788867475       4.903686036189184E-6
-0.5                      -0.30008917954082187     19.628440366964046       4.835388186017496E-6
-0.5                      0.10029250889327135      19.464587155958803       5.802973846638686E-6
-0.5                      -0.09989298455164167     19.546788990803492       6.187619454605481E-9
-0.5                      -0.5                     19.724770642201833       1.1841416444918015E-9
-0.4999999999999999       -0.4999999999999999      19.95412844036697        4.300823540393699E-9
-0.5                      0.5                      19.4954128440367         3.864101015808181E-9
-0.5                      0.3004458977032898       19.380733944954127       2.8183917406368674E-5
-0.5                      0.10029250889334307      19.23522935779736        3.398625972581109E-5
-0.5                      0.5                      19.266055045871553       1.7239424584496924E-8
-0.5                      0.5                      19.03669724770642        2.8468798822378525E-8
-0.5                      0.3004458977032912       19.151376146788984       3.128557592785534E-5
-0.5                      -0.5                     19.4954128440367         2.17444388088964E-9
-0.5                      -0.3000891795406855      19.39908256880593        3.339757895752397E-8
-0.5                      0.30044589770329067      18.922018348623848       3.097770159813015E-6
-0.5                      -0.09989298455128748     19.317431192656574       5.807496460404146E-6
-0.5                      -0.3000891795406627      19.169724770641963       3.2613506456163735E-8
-0.5                      0.10029250889335595      19.00587155963288        2.1579587890428492E-5
-0.5                      -0.09989298455122397     19.0880733944947         1.8489603398328043E-5
-0.5                      -0.3000891795406587      18.94036697247702        1.6244029597078146E-9
-0.5                      -0.5                     19.03669724770642        2.246798515421146E-11
-0.5                      -0.5                     19.266055045871553       5.505475611111776E-8
-0.5                      0.30044589770329155      18.463302752293572       3.484030925465906E-5
-0.5                      0.3004458977032902       18.69266055045871        3.0197153145080065E-5
-0.5                      0.10029250889335872      18.547155963302743       1.5038126890703659E-5
-0.5                      0.5                      18.80733944954128        6.0272633011993166E-5
-0.5                      0.5                      18.57798165137614        1.2985034919422956E-4
-0.5                      0.5                      18.348623853211006       6.957804172769197E-5
-0.5                      0.10029250889335817      18.77651376146786        1.6320308495274332E-5
-0.5                      -0.5                     18.80733944954128        1.4880129885746964E-4
-0.5                      -0.09989298455121265     18.858715596330143       2.3394334737578937E-5
-0.5                      -0.3000891795406584      18.711009174311915       7.79876967149163E-5
-0.5                      -0.09989298455121066     18.62935779816511        1.990417863501188E-5
-0.5                      -0.0998929845512102      18.399999999999988       1.0149344365303603E-8
-0.5                      -0.3000891795406583      18.481651376146786       1.6723653140540587E-7
-0.5                      -0.5                     18.57798165137614        1.488013094365632E-4
-0.5                      -0.5                     18.348623853211006       1.06335245484793E-4
-0.5                      -0.30008917954065817     18.25229357798165        5.3167623908170795E-5
-0.5                      0.10029250889335896      18.31779816513761        8.478840576948279E-10
-0.5                      -0.0998929845512102      18.17064220183486        4.294768932157569E-5
-0.5                      0.3004458977032912       18.23394495412844        1.9924237259459588E-7
-0.5                      -0.0998929845512102      17.941284403669723       6.736792076575049E-5
-0.5                      0.10029250889335883      18.08844036697247        7.644506726066779E-9
-0.5                      0.10029250889335896      17.859082568807338       2.1332651351596505E-8
-0.5                      0.30044589770329044      18.004587155963296       1.2374976320220469E-5
-0.5                      0.3004458977032918       17.77522935779816        3.344186458031435E-8
-0.5                      0.10029250889335896      17.6297247706422         9.952910725907805E-8
-0.5                      0.5                      18.11926605504587        2.47033941046578E-5
-0.5                      0.5                      17.88990825688073        2.433547107468932E-5
-0.5                      -0.5                     18.11926605504587        1.0604494794629553E-4
-0.5                      -0.3000891795406583      18.022935779816507       5.6433585559255265E-5
-0.5                      -0.5                     17.88990825688073        2.1845724245376255E-6
-0.5                      -0.30008917954065817     17.793577981651374       2.6579802763867876E-5
-0.5                      -0.5                     17.660550458715594       4.416423826232853E-6
-0.5                      -0.30008917954065806     17.56422018348624        9.37153557486785E-6
-0.5                      -0.0998929845512101      17.711926605504583       1.1044548748079892E-5
-0.5                      -0.09989298455121003     17.482568807339447       8.330683776986314E-6
-0.4999999999999999       -0.4999999999999999      17.431192660550455       4.6485765948931444E-7
-0.5                      -0.30008917954065795     17.3348623853211         1.8225490698509084E-5
-0.4999999999999999       -0.4999999999999999      17.20183486238532        1.4040789993316663E-6
-0.5                      0.5                      17.660550458715594       1.3769918043896406E-8
-0.5                      -0.09989298455121003     17.253211009174308       1.3198656796196819E-5
-0.5                      0.3004458977032902       17.545871559633024       4.031279287256754E-6
-0.5                      0.10029250889335896      17.40036697247706        1.0036982060734882E-7
-0.5                      -0.0998929845512102      17.023853211009172       3.344895899419322E-6
-0.5                      0.10029250889335883      17.171009174311923       3.325808821400256E-6
-0.5                      0.30044589770329155      17.316513761467885       3.93059079954844E-6
-0.5                      0.30044589770329044      17.08715596330275        3.655007214788162E-6
-0.5                      0.10029250889335861      16.941651376146783       2.133078213940887E-7
-0.4999999999999999       0.4999999999999999       17.431192660550455       7.860931405241434E-6
-0.4999999999999999       0.4999999999999999       16.972477064220183       4.839365303709559E-5
-0.4999999999999999       0.4999999999999999       17.20183486238532        8.873623117716578E-10
-0.5                      0.30044589770329044      16.85779816513761        2.4196433840233324E-5
-0.5                      -0.30008917954065795     17.10550458715596        1.084073902604864E-5
-0.4999999999999999       -0.4999999999999999      16.972477064220183       2.2166964548956085E-6
-0.5                      -0.30008917954065817     16.87614678899082        4.3145194664633414E-7
-0.5                      -0.0998929845512102      16.79449541284403        6.084842445908475E-6
-0.4999999999999999       -0.4999999999999999      16.74311926605504        1.9854759460397033E-7
-0.5                      -0.30008917954065817     16.646788990825684       9.676692428111783E-8
-0.5                      0.10029250889335883      16.712293577981647       6.076357185319809E-6
-0.5                      -0.0998929845512102      16.565137614678893       6.986591066674886E-6
-0.4999999999999999       -0.4999999999999999      16.513761467889903       1.1071841404525484E-7
-0.4999999999999999       0.4999999999999999       16.74311926605504        5.876988213704827E-5
-0.5                      0.3004458977032912       16.628440366972473       8.99889192393244E-6
-0.4999999999999999       0.4999999999999999       16.513761467889903       2.7134084108867296E-5
-0.5                      0.10029250889335872      16.48293577981651        1.558845523549459E-7
-0.5                      -0.30008917954065795     16.41743119266054        1.0226806835083338E-6
-0.4999999999999998       -0.4999999999999998      16.284403669724764       8.71048980495643E-11
-0.5                      -0.3000891795406584      16.188073394495405       4.754384813288495E-6
-0.4999999999999999       -0.4999999999999999      16.055045871559624       9.466131307009381E-6
-0.4999999999999998       0.4999999999999998       16.284403669724764       2.2631032506402498E-5
-0.5                      0.30044589770329055      16.399082568807334       5.138235422264734E-6
-0.5                      0.10029250889335861      16.253577981651368       1.0560573824538721E-5
-0.5                      -0.0998929845512102      16.335779816513753       9.265307250594592E-7
-0.5                      -0.30008917954065795     15.958715596330272       4.7359320248066676E-6
-0.5                      -0.0998929845512102      16.106422018348614       1.0445886911246057E-5