% Model:              Cav_Hex_Unif_flux_v5.1 - Base Case.mph
% Version:            COMSOL 5.5.0.359
% Date:               May 16 2022, 15:15
% Dimension:          3
% Nodes:              3445
% Expressions:        1
% Description:        Surface
% x                       y                        z                        Color
0.9577087381171099        1.4                      0                        0.07331405179318325
1.4                       1.4                      0                        0.0746232312894901
1                         1                        0                        0.0834601928895613
0.6000000000000001        1                        0                        0.08771502625255855
0.5096501544693237        1.3999999999999997       0                        0.09687928272670643
0.19999999999999993       1                        0                        0.09557010323039956
1.4                       0.9577087381171091       0                        0.10342518020824067
1                         0.6000000000000001       0                        0.10997107768977488
2.4771851236948805E-15    1.4                      0                        0.10866189819346801
-0.19999999999999996      1                        0                        0.10080682121562697
1.4                       0.5096501544693235       0                        0.12044451366022961
1                         0.19999999999999996      0                        0.10604353920085431
-0.5096501544693198       1.3999999999999997       0                        0.10080682121562697
-0.6000000000000001       1                        0                        0.08247830826733116
1.4                       1.1379786002407855E-15   0                        0.10473435970454748
1                         -0.19999999999999993     0                        0.09687928272670643
-0.9577087381171061       1.4                      0                        0.07855076977841062
-1                        1                        0                        0.07658700053395037
-1.4                      1.4                      0                        0.08836961600071197
1.4000000000000001        -0.5096501544693219      0                        0.10866189819346804
1                         -0.6000000000000001      0                        0.11258943668238858
1.3999999999999997        -0.9577087381171079      0                        0.11389861617869541
-1.4                      0.9577087381171092       0                        0.0864058467562517
-1                        0.6000000000000001       0                        0.08509666725994484
1.4                       -1.4                     0                        0.1355000778677583
1                         -1                       0                        0.12077180853430636
-1.4000000000000001       0.5096501544693219       0                        0.10997107768977488
-1                        0.19999999999999993      0                        0.10211600071193379
0.9577087381171039        -1.4                     0                        0.1165169751713091
0.6000000000000001        -1                       0                        0.08247830826733116
-1.4                      -2.0816681711721685E-16  0                        0.1112802571860817
-1                        -0.19999999999999996     0                        0.10211600071193377
0.5096501544693229        -1.4                     0                        0.09426092373409274
0.19999999999999996       -1                       0                        0.08509666725994482
-1.4                      -0.5096501544693218      0                        0.09426092373409273
-1                        -0.6000000000000001      0                        0.08902420574886537
8.881784197001252E-16     -1.4                     0                        0.10866189819346801
-0.19999999999999993      -1                       0                        0.09949764171932012
-1.4                      -0.9577087381171091      0                        0.08116912877102432
-1                        -1                       0                        0.0864058467562517
-0.5096501544693209       -1.4000000000000001      0                        0.09818846222301329
-0.6000000000000001       -1                       0                        0.09033338524517222
-1.4                      -1.4                     0                        0.06676815431164904
-0.9577087381171041       -1.3999999999999997      0                        0.07855076977841063
-1                        0.7340173538656918       49.730088038997046       0
-1                        1                        49.6124031007752         0
-1                        1                        50                       0
-1                        0.6000000000000001       50                       0
-1                        0.20000000000000015      50                       0
-1                        0.3808114018142772       49.63289641881644        5.610769269887532E-98
-1                        0.6912419157651544       49.40557003507671        6.545897481535454E-98
-1                        1                        49.2248062015504         0
-1                        1                        48.83720930232559        0
-1                        0.6629784937357802       49.03100775193799        6.545897481535774E-116
-1                        -0.022780600602922474    49.68706925479916        0
-1                        -0.19999999999999973     50                       0
-1                        0.0978163752242367       49.39544531692569        0
-1                        -0.3972437082768419      49.70385036349801        6.545897481535685E-104
-1.0000000000000002       -0.6                     50.00000000000001        1.3091794963072259E-136
-1                        -0.21874600083393259     49.39116109109513        6.545897481535685E-104
-1                        -0.7189281667945755      49.743460099982805       7.855076977843355E-137
-1                        -1                       50                       0
-1                        -0.01382594777116447     49.050579013267665       5.610769269887766E-104
-1                        0.3619621976317782       49.21812931349965        6.545904027432936E-98
-1                        1                        48.44961240310078        6.545897481535572E-102
-1                        0.6629784937357779       48.64341085271319        6.545897481535183E-74
-1                        0.32595698747155843      48.83720930232559        6.545897481535183E-74
-1                        1                        48.06201550387597        6.545897481535644E-102
-1                        0.6629784937357779       48.25581395348838        6.545897481535572E-102
-1                        -0.011064518792666346    48.64341085271319        6.545897481534326E-8
-1                        -0.6230074814296211      49.40141173511094        5.61076926988773E-104
-1                        -0.33865140380458103     48.81861778349908        6.61135645634967E-8
-1                        -0.3658535326844763      49.126060953236816       0
-1                        -0.660959289872247       49.00907799717847        6.545897481535171E-69
-1                        -1                       49.6124031007752         6.545897481535872E-123
-1                        -1                       49.2248062015504         6.545897481535622E-97
-1                        1                        47.674418604651166       7.200487236889831E-116
-1                        0.6629784937357802       47.86821705426357        6.545897482190356E-116
-0.9999999999999998       0.9999999999999998       47.28682170542636        0
-1                        0.6629784937357802       47.48062015503877        6.545897481535908E-126
-1                        0.32595698747156043      47.67441860465117        6.545904027433454E-130
-1                        0.32595698747155755      48.06201550387597        6.545897481534928E-56
-1                        0.32595698747155555      48.44961240310079        6.545897481534928E-56
-1                        0.0110645187926659       48.25581395348838        6.545897481534928E-56
-1                        -0.3259569874715553      48.44961240310079        6.61135645634967E-8
-1                        0.011064518792661016     47.86821705426357        6.545898136126921E-123
-1                        -0.3259569874715575      48.06201550387597        6.545897481535571E-102
-1                        -0.6629784937357779      48.64341085271319        6.545897481534349E-10
-1                        -0.6629784937357777      48.25581395348838        6.545897481535571E-102
-1                        -1                       48.44961240310078        6.545897481535612E-105
-1                        -1                       48.83720930232559        6.545897481535171E-69
-1                        1                        46.51162790697674        6.545897481535686E-110
-1                        1                        46.89922480620155        6.545897481536051E-128
-1                        0.6629784937357777       46.70542635658914        6.545897481536024E-87
-1                        0.32595698747155843      47.28682170542636        6.545897481535519E-98
-1                        0.6629784937357779       47.09302325581397        6.545897481535519E-98
-1                        0.32595698747155355      46.89922480620155        6.545897481535519E-98
-1                        0.011064518792659683     47.48062015503877        6.546552071938652E-126
-1                        0.011064518792666346     47.093023255813975       6.545897481535574E-94
-1                        -0.3259569874715582      47.28682170542636        6.545897481535561E-101
-1                        -0.32595698747156027     47.674418604651166       6.54589748153594E-128
-1                        -0.6629784937357802      47.86821705426357        6.545897481535571E-102
-1                        -0.6629784937357802      47.480620155038764       6.545897481535909E-126
-1                        -1                       47.674418604651166       6.545897481535615E-105
-1                        -1                       48.06201550387597        1.3811843686040708E-123
-0.9999999999999998       0.9999999999999998       45.736434108527135       6.545897481535514E-97
-1                        1                        46.12403100775194        6.61790235383258E-110
-1                        0.6629784937357802       45.93023255813954        6.545897481535779E-112
-1                        0.32595698747155916      46.51162790697674        6.545897546994231E-79
-1                        0.6629784937357802       46.31782945736434        6.545897481536024E-87
-1                        0.011064518792666123     46.70542635658914        6.545897481534858E-51
-1                        0.32595698747156043      46.124031007751945       6.545897481535256E-79
-1                        0.011064518792660351     46.31782945736435        6.545897481534832E-49
-1                        -0.6629784937357777      47.09302325581397        6.545897481534216E-5
-1                        -0.32595698747155355     46.89922480620156        6.545897481534858E-51
-1                        -0.3259569874715589      46.51162790697674        6.6113564563501805E-49
-1                        -0.6629784937357774      46.70542635658914        6.545897481536015E-134
-1                        -1                       46.89922480620155        1.3091794963068432E-4
-0.9999999999999998       -0.9999999999999998      47.28682170542636        1.3091794963068432E-4
-1                        1                        45.348837209302346       6.545897481535741E-114
-1                        0.6629784937357828       45.54263565891474        1.3157253937886778E-111
-1                        1                        44.96124031007752        6.545897481535725E-113
-1                        0.6629784937357761       45.15503875968993        6.54589748153552E-90
-1                        0.3259569874715633       45.736434108527135       6.61135645636433E-124
-1                        0.325956987471558        45.348837209302346       6.54589748153552E-90
-1                        0.011064518792659017     45.93023255813954        6.545897481535573E-102
-1                        0.01106451879265502      45.54263565891475        6.545897481535729E-113
-1                        -0.32595698747156016     46.124031007751945       6.545897481534832E-49
-1                        -0.3259569874715632      45.736434108527135       6.545962940510545E-113
-1                        -0.6629784937357799      46.31782945736434        0
-1                        -0.6629784937357802      45.93023255813954        6.545897481535637E-107
-1                        -1                       46.12403100775194        6.545904027433042E-101
-1                        -1                       46.51162790697674        0
-1                        1                        44.573643410852725       6.545897481535914E-126
-1                        0.6629784937357819       44.76744186046513        6.545897482190455E-123
-1                        1                        44.18604651162792        6.545897481535756E-111
-1                        0.6629784937357802       44.37984496124033        6.545897481535691E-111
-1                        0.3259569874715622       44.57364341085273        6.545897481535731E-113
-1                        0.32595698747155916      44.96124031007753        6.54589748153552E-90
-1                        0.011064518792666568     45.15503875968994        0
-1                        0.011064518792657685     44.76744186046513        6.545897481535688E-110
-1                        -0.32595698747155794     45.348837209302346       6.545897481535434E-92
-1                        -0.32595698747155916     44.96124031007753        6.545897481535396E-89
-1                        -0.6629784937357828      45.54263565891474        6.545897481535124E-70
-1                        -0.6629784937357761      45.15503875968993        6.545897481535124E-70
-1                        -1                       45.348837209302346       6.545897481535124E-70
-0.9999999999999998       -0.9999999999999998      45.736434108527135       6.545897481535637E-107
-1                        0.662978493735777        43.99224806201551        6.545904027433098E-105
-0.9999999999999998       0.9999999999999998       43.79844961240311        6.545897481535085E-67
-1.0000000000000002       1.0000000000000002       43.41085271317831        7.265946204503906E-65
-1                        0.6629784937357802       43.60465116279071        6.545897481535085E-67
-1                        0.325956987471558        43.79844961240311        6.611356456351486E-141
-1                        0.3259569874715562       44.18604651162793        6.545897481535731E-113
-1                        0.011064518792662348     44.37984496124033        6.5458975469945846E-105
-1                        0.011064518792664346     43.99224806201551        6.545897481535537E-99
-1                        -0.32595698747155794     44.18604651162792        6.545897481534307E-11
-1                        -0.32595698747156027     44.573643410852725       6.545897481534307E-11
-1                        -0.6629784937357819      44.76744186046512        6.545897481535396E-89
-1                        -0.6629784937357802      44.37984496124032        6.545897481534307E-11
-1                        -1                       44.573643410852725       6.545898142671317E-109
-1                        -1                       44.96124031007752        7.200493775659367E-108
-0.9999999999999998       0.9999999999999998       43.02325581395349        7.200487229688556E-65
-1                        0.6629784937357752       43.217054263565906       6.545897481535063E-66
-1                        1                        42.63565891472869        1.3091794963070588E-81
-1                        0.662978493735781        42.82945736434109        6.545897481535294E-82
-1                        0.32595698747155577      43.02325581395349        6.545962940510632E-111
-1                        0.3259569874715553       43.410852713178315       6.545897494627431E-107
-1                        0.01106451879266146      43.60465116279072        6.545897546994512E-99
-1                        0.01106451879267012      43.217054263565906       6.545897481534769E-36
-1                        -0.32595698747155794     43.79844961240311        6.545897481535096E-68
-1                        -0.3259569874715554      43.410852713178315       6.54589748153538E-88
-1                        -0.662978493735777       43.99224806201551        6.545897481535096E-68
-1                        -0.6629784937357802      43.6046511627907         6.545897481535245E-74
-0.9999999999999998       -0.9999999999999998      43.79844961240311        1.3091794963070358E-73
-1                        -1                       44.18604651162792        6.545897481535831E-116
-1                        1                        42.24806201550388        1.4400974590296634E-114
-1                        0.6629784937357802       42.441860465116285       6.545897481534758E-44
-1.0000000000000002       1.0000000000000002       41.860465116279094       6.545897481535764E-115
-1                        0.6629784937357843       42.05426356589149        6.545897481534372E-16
-1                        0.32595698747156243      42.24806201550388        6.545897481534758E-44
-1                        0.32595698747156177      42.635658914728694       6.545897481534758E-44
-1                        0.011064518792661904     42.82945736434109        6.611356456350117E-36
-1                        0.011064518792658795     42.441860465116285       6.546552071283691E-99
-1                        -0.3259569874715558      43.02325581395349        6.611356456350117E-36
-1                        -0.3259569874715599      42.635658914728694       6.545897546993662E-38
-1                        -0.6629784937357752      43.217054263565906       6.54589748153538E-88
-1                        -0.662978493735781       42.82945736434108        6.545897481534796E-46
-0.9999999999999998       -0.9999999999999998      43.02325581395349        6.545897481535105E-69
-1.0000000000000002       -1.0000000000000002      43.41085271317831        6.545897481535179E-74
-1                        1                        41.47286821705428        6.545897481535585E-56
-1                        0.662978493735777        41.666666666666686       6.545897481534372E-16
-1                        1                        41.08527131782948        6.545897481534879E-44
-1                        0.662978493735777        41.279069767441875       6.545897481535585E-56
-1                        0.32595698747155466      41.472868217054284       6.545897481534678E-38
-1                        0.32595698747156177      41.860465116279094       6.545897481534372E-16
-1                        0.011064518792653244     42.05426356589149        6.545897481535063E-65
-1                        0.011064518792667233     41.66666666666669        6.545897481534898E-54
-1                        -0.3259569874715609      41.860465116279094       6.545897481534898E-54
-1                        -0.32595698747156415     42.24806201550389        6.617902353832382E-96
-1                        -0.6629784937357802      42.441860465116285       6.545897481534796E-46
-1                        -0.6629784937357843      42.05426356589149        6.545897481534718E-41
-1                        -1                       42.24806201550388        6.545897481534737E-42
-1                        -1                       42.63565891472869        7.200487229688617E-69
-1.0000000000000002       1.0000000000000002       40.69767441860467        6.545962940509694E-44
-1                        0.662978493735781        40.89147286821707        6.545897482189673E-58
-1                        1                        40.31007751937987        7.200487229688305E-48
-1                        0.662978493735781        40.50387596899227        6.545897481534822E-48
-1                        0.6629784937357752       40.11627906976746        6.545897481534553E-29
-1                        0.3259569874715622       40.69767441860467        6.545904027432482E-52
-1                        0.32595698747155843      41.08527131782947        6.545897481534743E-38
-1                        0.011064518792658351     41.279069767441875       6.545897481534678E-38
-1                        0.01106451879265924      40.89147286821708        6.545897481541546E-52
-1                        0.011064518792665012     40.503875968992276       6.545904027432526E-64
-1                        -0.3259569874715558      41.47286821705428        6.545897481534898E-54
-1                        -0.3259569874715622      41.08527131782948        6.545897481534428E-11
-1                        -0.6629784937357752      41.666666666666686       6.545897481534718E-41
-1                        -0.662978493735781       41.279069767441875       7.20114181944414E-122
-1                        -1                       41.47286821705428        7.200487229688544E-64
-1.0000000000000002       -1.0000000000000002      41.860465116279094       1.3746384711222917E-40
-1                        1                        39.92248062015505        6.545897481534553E-29
-1                        1                        39.53488372093024        6.545897481534876E-52
-1                        0.6629784937357779       39.72868217054265        6.545897481534553E-29
-1                        0.6629784937357802       39.341085271317844       6.545897481534238E-6
-1                        0.3259569874715533       39.922480620155056       6.545897481534857E-51
-1                        0.32595698747155577      40.310077519379874       6.545897481534857E-51
-1                        0.011064518792670341     40.11627906976746        6.545897481534857E-51
-1                        0.01106451879266701      39.72868217054265        6.545897481534342E-14
-1                        -0.3259569874715545      40.31007751937987        6.5458974815353045E-83
-1                        -0.3259569874715589      40.69767441860468        6.545897481534428E-11
-1                        -0.662978493735781       40.89147286821707        6.545897481534428E-11
-1                        -0.6629784937357781      40.50387596899227        6.54589748153471E-40
-1                        -0.662978493735775       40.11627906976746        6.552508837991336E-60
-1.0000000000000002       -1.0000000000000002      40.69767441860467        6.54589748153471E-40
-1                        -1                       41.08527131782948        6.618556943580155E-69
-1                        1                        39.147286821705436       6.54589748153492E-55
-1                        1                        38.75968992248063        7.200487230408448E-54
-1                        0.662978493735781        38.953488372093034       6.552443379017059E-85
-1                        0.662978493735777        38.56589147286823        6.552443379015892E-15
-1                        0.3259569874715609       39.14728682170544        6.545897481534238E-6
-1                        0.32595698747155755      39.53488372093024        6.545897481534238E-6
-1                        0.011064518792661238     39.34108527131784        6.545897481534342E-14
-1                        0.011064518792660129     38.95348837209304        6.545897481534427E-20
-1                        -0.3259569874715573      39.53488372093024        6.545897481534342E-14
-1                        -0.3259569874715531      39.922480620155056       6.545898142670525E-53
-1                        -0.6629784937357777      39.72868217054265        6.545897481534637E-35
-1                        -0.6629784937357802      39.341085271317844       6.545897481534637E-35
-1                        -1                       39.92248062015505        6.545897481534607E-33
-1                        -1                       40.31007751937987        1.309179496306942E-39
-1                        1                        38.37209302325582        6.545904027432438E-58
-1                        1                        37.984496124031025       6.545897481534565E-30
-1                        0.6629784937357828       38.17829457364342        6.552443379015892E-15
-1                        0.6629784937357802       37.790697674418624       6.545897481599734E-9
-1                        0.32595698747156         38.37209302325582        6.552443379015892E-15
-1                        0.32595698747155843      38.75968992248063        6.545897481534597E-32
-1                        0.011064518792665234     38.56589147286823        6.545904027431907E-20
-1                        0.01106451879265502      38.17829457364342        6.54589748153451E-26
-1                        -0.32595698747155777     38.75968992248063        6.545897481534427E-20
-1                        -0.3259569874715602      39.14728682170544        6.545963595099515E-57
-1                        -0.6629784937357799      38.953488372093034       6.545897481534905E-54
-1                        -0.6629784937357768      38.56589147286823        6.545897481534885E-48
-1                        -1                       39.147286821705436       7.265946204503725E-52
-1                        -1                       39.53488372093024        6.545897481534637E-35
-1                        1                        37.59689922480622        6.545897482189017E-20
-0.9999999999999998       0.9999999999999998       37.20930232558142        6.54589748153475E-43
-1                        0.6629784937357779       37.40310077519382        6.545897481534427E-20
-1                        0.6629784937357808       37.01550387596902        6.545897488081407E-42
-1                        0.32595698747155666      37.59689922480622        6.545897481534275E-9
-1                        0.3259569874715633       37.98449612403103        6.545897481534275E-9
-1                        0.011064518792660129     37.79069767441864        6.546552071283099E-57
-1                        0.011064518792665456     37.40310077519382        6.545897481534219E-5
-1                        -0.32595698747155805     38.37209302325582        6.54589748153451E-26
-1                        -0.3259569874715647      37.98449612403103        6.552443379016665E-70
-1                        -0.6629784937357825      38.17829457364342        6.545897481534541E-28
-1                        -0.6629784937357802      37.790697674418624       6.545897481534679E-38
-1                        -1                       38.37209302325582        6.545897481534541E-28
-1                        -1                       38.75968992248063        6.54589754699388E-54
-1                        1                        36.82170542635661        6.545897481534679E-38
-1                        1                        36.4341085271318         6.6113564563568E-54
-1                        0.6629784937357772       36.62790697674421        6.546558617180493E-51
-1                        0.6629784937357808       36.240310077519396       6.611356456350028E-38
-1                        0.3259569874715571       36.82170542635661        6.545897488081414E-42
-1                        0.3259569874715589       37.20930232558142        6.545897481534854E-42
-1                        0.011064518792661016     37.01550387596902        6.5458974815345185E-18
-1                        0.011064518792665234     36.62790697674421        6.545897481599676E-5
-1                        -0.3259569874715566      37.59689922480622        6.545897481534219E-5
-1                        -0.3259569874715589      37.20930232558142        6.545897546993848E-5
-1                        -0.6629784937357777      37.40310077519382        6.545898201583288E-30
-1                        -0.6629784937357808      37.01550387596902        6.545897481534448E-13
-1                        -1                       37.59689922480622        6.545897481534565E-30
-1                        -1                       37.984496124031025       7.200487229687981E-27
-1                        1                        36.046511627906995       6.5458974815343735E-16
-0.9999999999999998       0.9999999999999998       35.658914728682184       6.5458974815343735E-16
-1                        0.6629784937357772       35.85271317829459        6.545962940509118E-11
-1                        0.6629784937357808       35.46511627906979        6.545897482189171E-31
-1                        0.3259569874715571       36.046511627906995       6.545897481534303E-11
-1                        0.32595698747155866      36.4341085271318         6.545897488145913E-29
-1                        0.011064518792661016     36.240310077519396       6.545897481534622E-29
-1                        0.011064518792665456     35.85271317829459        6.545898149216344E-47
-1                        -0.32595698747155866     36.4341085271318         6.545897481599676E-5
-1                        -0.3259569874715571      36.82170542635661        6.545897547059305E-5
-1                        -0.6629784937357772      36.62790697674421        6.545962940509452E-35
-1                        -0.6629784937357808      36.240310077519396       6.545897481534469E-23
-1                        -1                       36.82170542635661        1.3091794963069275E-34