% Model:              Cav_Hex_Unif_flux_v5.1 - Base Case.mph
% Version:            COMSOL 5.5.0.359
% Date:               May 16 2022, 15:15
% Dimension:          3
% Nodes:              5541
% Expressions:        1
% Description:        Surface
% x                       y                        z                        Color
8                         8                        0                        0.1687750567322242
8.4                       8.4                      0                        0.15884711221856396
8.4                       5.824142950696388        0                        0.20084995439174208
-8                        8                        0                        0.18710356968052008
-8.400000000000004        5.8241429506963875       0                        0.21230527498442697
-8.4                      8.4                      0                        0.18023037732490915
-5.824142950696377        8.4                      0                        0.2268153477351612
8                         -8                       0                        0.17106612085076117
8.4                       -5.824142950696381       0                        0.19321307399661877
8.4                       -8.4                     0                        0.1603744882975886
5.824142950696385         -8.4                     0                        0.23063378793272288
5.824142950696385         8.4                      0                        0.2229969075375996
-8                        -8                       0                        0.1703024328112489
-8.4                      -8.4                     0                        0.16801136869271194
-8.4                      -5.824142950696387       0                        0.2046683945893037
-8                        -5.714285714285714       0                        0.20314101851027888
8                         -5.714285714285713       0                        0.18481250556198303
-5.714285714285714        8                        0                        0.20772314674735287
-8                        5.714285714285713        0                        0.20772314674735282
8                         5.714285714285714        0                        0.20772314674735287
7.999999999999998         -3.4285714285714284      0                        0.2311429132923979
8.4                       -3.009049604034738       0                        0.3054752158049313
7.999999999999998         3.428571428571428        0                        0.24234367120524536
8.4                       3.0090496040347148       0                        0.28714670285663546
7.999999999999998         1.1428571428571432       0                        0.27696419566313774
8.4                       -1.9567680809018384E-14  0                        0.3309314837886756
5.714285714285713         8                        0                        0.18481250556198298
3.4285714285714284        7.999999999999998        0                        0.2881649535759851
3.0090496040347188        8.400000000000002        0                        0.3350044866660748
1.142857142857142         7.999999999999998        0                        0.33907748954347366
5.551115123125783E-17     8.4                      0                        0.36249725608851824
-1.1428571428571426       8.000000000000002        0                        0.3431504924208724
-7.999999999999998        3.4285714285714284       0                        0.2545626798374426
-8.4                      3.0090496040347356       0                        0.30140221292753233
-3.0090496040347183       8.4                      0                        0.32482197947257674
-3.428571428571428        7.999999999999998        0                        0.26169043487289095
5.714285714285714         -8                       0                        0.1955041381151556
3.428571428571428         -7.999999999999998       0                        0.29325620717273393
3.0090496040347356        -8.4                     0                        0.35333299961437037
-5.824142950696392        -8.4                     0                        0.2199421553795503
-5.714285714285713        -8                       0                        0.18786725772003238
-3.4285714285714284       -7.999999999999998       0                        0.27187294206638873
-3.0090496040347245       -8.400000000000002       0                        0.3319497345080254
-7.999999999999998        -3.428571428571428       0                        0.24539842336329465
-8.4                      -3.0090496040347268      0                        0.30242046364688174
-8.000000000000002        -1.1428571428571426      0                        0.33398623594672455
-8.4                      -8.965050923848139E-15   0                        0.36962501112396656
7.999999999999998         -1.142857142857142       0                        0.29223795645338424
-7.999999999999998        1.142857142857142        0                        0.319730725875828
-1.142857142857142        -7.999999999999998       0                        0.31973072587582807
-5.551115123125783E-17    -8.4                     0                        0.3624972560885183
1.1428571428571426        -8.000000000000002       0                        0.341113990982173
-8                        5.714285714285713        0                        0.14585335998780943
-8                        8                        0                        0.11710403654921658
-8                        6.399613512553145        1.709006963007598        0.1265966304092434
-8                        4.482995757972045        1.9744690261730424       0.14759127415751985
-7.999999999999998        3.4285714285714284       0                        0.1614377086538522
-8                        2.2857142857142847       2.1395157600494485       0.15749699862781086
-8                        8                        2.5641025641025665       0.13925877595779712
-8                        -5.714285714285714       0                        0.16513077334929185
-8                        -5.754801530403203       1.8820578931072252       0.15687887334163628
-8                        -8                       0                        0.1617817617283455
-8                        -8                       2.5641025641025665       0.18507134129316605
-7.999999999999998        -3.428571428571428       0                        0.15779330558238827
-8                        -3.9609101705761747      2.524278643727529        0.13085261723502647
-7.999999999999998        1.142857142857142        0                        0.16773327141962713
-8.000000000000002        -1.1428571428571426      0                        0.16475359062884737
-8                        -2.1043988840981296      2.225593583014818        0.1337650870982884
-8                        0                        2.1395157600494485       0.15447916688371346
-7.999999999999998        7.999999999999998        5.128205128205133        0.1831926672221509
-8                        5.8007860869900565       4.006463218196776        0.16406941611489237
-8                        1.0269477883073517       4.034277380187001        0.16150266348969078
-8                        3.268663356429825        4.160269695150487        0.16019211523995033
-7.999999999999998        -7.999999999999998       5.128205128205133        0.1959588580085593
-8                        -5.4484138510570155      4.107507802736166        0.16964636111702483
-8                        -3.041207673239231       3.888516329869307        0.10432048486710022
-8                        -5.746647837406634       6.703549938355801        0.18349371757875454
-8                        -3.6408576312798684      5.745116325733803        0.13715820988661434
-8                        -8                       7.692307692307701        0.16978214255262417
-8                        4.191857806960444        5.720834870997327        0.15203352249992075
-8                        5.94189573375385         6.553042846969359        0.17401106663388274
-8                        8                        7.692307692307701        0.18147377485297925
-8                        -5.786728177056389       8.980454142114658        0.17652658152777054
-8                        -3.7122975175897484      7.883722758340506        0.15578105730692923
-8                        -1.0666328400541012      3.8460760166785235       0.11737561802407666
-8                        -1.9515480287373954      6.926208432567616        0.1279343345948628
-8                        -2.010239761225051       5.2158163145966          0.10136680482788021
-8                        1.962363115826589        6.3043447651149          0.1693145709311957
-8                        -0.3532909498000407      5.703356428415108        0.1479721683422345
-8                        -0.08063597291763759     7.893415661345959        0.15491590667463523
-8                        3.882628231042066        7.79608719775009         0.16328871773448717
-8                        -1.895738749287311       9.105278866375667        0.13645962963810626
-7.999999999999998        -7.999999999999998       10.256410256410268       0.15946309388375343
-8                        1.799033486682216        8.98930315195119         0.16205758041992474
-8                        3.5522045550610564       10.25641025641022        0.17624415977145427
-8                        5.776102277530525        8.974358974358987        0.18445840314107556
-7.999999999999998        7.999999999999998        10.256410256410268       0.1926344585587246
-8                        -0.08321872793017526     10.247747910984728       0.14759860843790637
-8                        1.7217323080633822       11.505753302241995       0.1472584498100972
-8                        -5.776102277530514       11.538461538461497       0.16882996054492308
-8                        -8                       12.820512820512837       0.16824794339438556
-8                        -3.7540090134038966      10.312804120893947       0.15718709418599283
-8                        -1.9204304450892735      11.511182428211475       0.1571542679066417
-8                        3.5522045550610244       12.82051282051282        0.17449262580533173
-8                        8                        12.820512820512837       0.18667498577627453
-8                        5.776102277530514        11.538461538461497       0.2015040563250575
-8.000000000000002        8.000000000000002        15.384615384615401       0.1568999769428162
-8                        5.776102277530524        14.10256410256412        0.18652030429016406
-8                        -5.776102277530524       14.10256410256412        0.18669949375510045
-8.000000000000002        -8.000000000000002       15.384615384615401       0.17177038659013377
-8                        -3.721562756843417       12.74242196360682        0.17784556747759714
-8                        -0.10906543442189731     12.747966585779945       0.15691700530914407
-8                        -1.9364541467296488      13.992417313189275       0.1832571961664583
-8                        1.7164563219627242       14.05512977703225        0.14084600764276856
-8                        3.552204555061049        15.384615384615397       0.17834690787116125
-8                        5.776102277530525        16.66666666666668        0.18338227001795845
-7.999999999999998        7.999999999999998        17.948717948717967       0.13533835928896581
-8                        -3.830218715012013       15.31543874986767        0.18294523940739374
-8                        -5.776102277530526       16.66666666666665        0.16964708050998867
-7.999999999999998        -7.999999999999998       17.948717948717967       0.15515140595426527
-8                        -0.11557740468984123     15.291572288592437       0.16007218710259508
-8                        -1.9567508865658196      16.55198051081075        0.16004000998024717
-8                        1.7161987618227972       16.61267166332867        0.15722484733496578
-8                        -0.11902771243354195     17.84529448682051        0.13761974821339992
-8                        1.7137574578770973       19.158821245964575       0.15301718967577452
-8                        3.5522045550610617       17.948717948717956       0.18402625080912813
-8                        5.776102277530526        19.230769230769205       0.1719302040406504
-8.000000000000002        8.000000000000002        20.51282051282054        0.14727163429000334
-8                        -3.82120332197573        17.85285757683457        0.15964914364626917
-8                        -5.776102277530526       19.230769230769205       0.16367652585181205
-8.000000000000002        -8.000000000000002       20.51282051282054        0.15550342247426424
-8                        -5.776102277530514       21.79487179487179        0.15240144167229058
-8                        -8                       23.0769230769231         0.13750582027874422
-8                        -3.827588452737939       20.424864055639635       0.15490395884462657
-8                        -1.9592042811756973      19.11195645635906        0.13409309339811518
-8                        -0.11388093783221541     20.406358326216424       0.13754985110798376
-8                        8                        23.0769230769231         0.15439391725497967
-8                        5.776102277530514        21.79487179487179        0.1703714844868857
-8                        3.552204555061035        20.51282051282044        0.168565454233412
-8                        1.7158245672928751       21.720907031230286       0.13755179985208746
-8                        -1.9683460160034083      21.690517329062086       0.1349418149053612
-8                        5.776102277530514        24.358974358974343       0.15416313288618277
-8                        8                        25.641025641025678       0.15843002921464072
-8                        3.5522045550610386       23.076923076923066       0.1571636271706596
-8                        -5.776102277530514       24.358974358974343       0.1447729807689511
-8                        -8                       25.641025641025678       0.14215667328354917
-8                        -3.8409965569192366      22.996648971229906       0.14568656417948642
-8                        -3.8139511220927034      25.549798549576906       0.1454521553708689
-8                        -1.959910318603026       24.24589171098504        0.13289594843113636
-8                        -0.12141596161162171     22.979018696188547       0.12624228706047666
-8                        1.715814264512199        24.299276501019417       0.13668340471463067
-8                        -5.776102277530527       26.923076923076938       0.13240575275050276
-7.9999999999999964       -7.9999999999999964      28.205128205128236       0.1280963687524825
-8                        3.552204555061025        25.64102564102566        0.14787075987685827
-8                        5.776102277530525        26.923076923076962       0.15462731151074585
-7.9999999999999964       7.9999999999999964       28.205128205128236       0.13322787509990633
-8                        -0.11998395581493027     25.547111026387846       0.12593551234504965
-8                        -1.9554241446733513      26.798902917950866       0.13532720688184985
-8                        -3.8271474989923147      28.119639533375          0.12042813816464486
-8                        -5.776102277530523       29.48717948717951        0.11422275518903587
-7.999999999999998        -7.999999999999998       30.7692307692308         0.12574174300585686
-8                        1.7170846777242217       26.86446427355378        0.1344973553252546
-8                        -3.842326917971946       30.690255283764813       0.10522939707549013
-8                        3.5522045550610493       28.20512820512824        0.1507782271450239
-7.999999999999998        7.999999999999998        30.7692307692308         0.1404550235456752
-8                        5.776102277530525        29.487179487179517       0.15525227225212865
-8                        -1.9654201059302314      29.37418067478721        0.12774872188060887
-8                        -0.12251723506813804     28.111180961120823       0.12748836890379567
-8                        1.7127913733278994       29.417414145291467       0.13457033536175392
-8                        -5.776102277530526       32.05128205128205        0.11303736569790372
-8                        -8                       33.33333333333337        0.10171806022577999
-8                        3.5522045550610493       30.769230769230795       0.1434052333885713
-8                        5.776102277530525        32.05128205128208        0.15230842140617637
-8                        8                        33.33333333333337        0.13603582515177617
-8                        -3.8141339310020586      33.24205790336337        0.1258624380935223
-8                        -1.9636733602205165      31.935109887738086       0.12587629415320192
-8                        -0.12415125504244351     30.665012728753503       0.13881164379995298
-8                        1.7147735591435378       31.98951543262321        0.1370981190108802
-8                        3.5522045550610444       33.33333333333336        0.13444298460885593
-8                        -0.11704197295649266     33.22043931956401        0.13419084485804306
-8                        -5.776102277530509       34.61538461538463        0.11807782509641733
-8                        -8                       35.89743589743594        0.09040626078256397
-8                        -3.824533647543424       35.80994279947316        0.13721405456598387
-8                        5.776102277530514        34.615384615384635       0.12808668383284483
-8                        8                        35.89743589743594        0.10057314308117932
-8                        1.7206450309432313       34.553326244526296       0.12295589188333796
-8                        -1.9566941303588108      34.498974464209375       0.13894149062426006
-8                        -5.776102277530525       37.179487179487225       0.10425009051368879
-8                        -8                       38.4615384615385         0.085044372821746
-8                        -3.738004916084436       38.33846153846161        0.11912007561796151
-8                        -1.9332011136432339      37.056777890766206       0.12598451935830038
-8                        5.776102277530525        37.179487179487225       0.09291711478639292
-8                        8                        38.4615384615385         0.0797189964363916
-8                        5.776102277530519        39.74358974358978        0.0885076233309432
-8                        -5.776102277530519       39.74358974358978        0.09885673011396284
-8                        3.5522045550610333       35.89743589743595        0.1262366642239819
-8                        -0.10440329570126394     35.78182349600478        0.11601398101788764
-8                        1.7365953237776353       37.0988603242147         0.12598443481857038
-8                        -0.0740329054585831      38.3203691500474         0.11293736010090823
-8                        3.7130064962925395       38.42658851973195        0.11339096988222964
-8                        -8                       41.02564102564108        0.08571978592327334
-8                        8                        41.02564102564108        0.08973734711548088
-8                        -3.7380049160844404      40.90256410256416        0.1096876844304609
-8                        -1.901537786712888       39.591095896400894       0.11746505678791926
-8                        1.8004777585988716       39.63972468587092        0.11792698755295661
-8                        -0.061811597806911596    40.84401738971057        0.11871668185165928
-8                        3.7123812543917154       40.98967952667729        0.10065006448488385
-8                        5.776102277530526        42.30769230769238        0.09095109686354792
-8                        -5.776102277530525       42.30769230769238        0.0887338938031396
-8                        -8                       43.58974358974364        0.07566261703471526
-8                        -3.7380049160844377      43.46666666666679        0.09641776156055838
-8                        -1.8950863692344304      42.14912671713831        0.10123865897460908
-8                        8                        43.58974358974364        0.0901825604306508
-8                        5.776102277530519        44.87179487179493        0.08754712971532802
-8                        -5.776102277530519       44.87179487179493        0.08383033334991008
-8                        1.8051557205423947       42.20296932394816        0.11746882952724597
-8                        -0.05402429069179204     43.40742985944477        0.1095973955958806
-8                        3.6910011087671943       43.55849137630719        0.1047619853459269
-8                        -8                       46.1538461538462         0.07544629012082005
-8                        8                        46.1538461538462         0.08432456938792222
-8                        -3.7380049160844395      46.030769230769344       0.09329454000976296
-8                        -1.892821011268893       44.713063643202574       0.1055850107266405
-8                        1.8082720204042495       44.76626900854439        0.11520201691434662
-8                        -0.052158836996461844    45.97115385276016        0.11366220379621983
-8                        3.7136555732676797       46.11627723992249        0.09546179829173342
-8                        5.776102277530526        47.43589743589749        0.07828132742034166
-8                        -5.776102277530525       47.43589743589749        0.08314219677929133
-8                        -8                       48.71794871794877        0.07601108398171755
-8                        -3.738004916084439       48.5948717948719         0.07964570143574634
-8                        -1.8796467385217939      47.25323553243601        0.0998618401181942
-8                        8                        48.71794871794877        0.06420050775626217
-8                        5.776102277530514        50.00000000000004        0.06963619841316417
-8                        -5.776102277530513       50.000000000000064       0.07891402568027839
-8                        1.8073970888077842       47.329425234900604       0.0987923065216345
-8                        -0.052732904668664204    48.5350688391251         0.0865097391843546
-8                        3.745135709791313        48.67278774031427        0.08428886751333353
-8                        -8                       51.28205128205134        0.0723656609279215
-8                        8                        51.28205128205134        0.06374846540149463
-8                        -3.738004916084438       51.158974358974525       0.07121964930547901
-8                        -1.8796058291287763      49.81730633017889        0.08138608121189374
-8                        1.8188325682874993       49.89169049668779        0.08372943219558854
-8                        -0.049068507565419146    51.10604397053336        0.08516441504257333
-8                        3.7192109345474016       51.2440318130724         0.07806585162754749
-8                        5.776102277530525        52.56410256410264        0.06799822463265764
-8                        -5.776102277530525       52.56410256410264        0.07290586139031538
-8                        -8                       53.846153846153896       0.0694921790773012
-8                        -1.8822826937231445      52.387899162366594       0.08162507676414105
-8                        -3.7380049160844404      53.72307692307707        0.06739372822776751
-8                        8                        53.846153846153896       0.05997022093675539
-8                        5.776102277530519        55.128205128205195       0.06701861735751136
-8                        -5.776102277530519       55.128205128205195       0.06376681368231824
-8                        1.8163666973574344       52.45666126985513        0.0751489748498929
-8                        -0.04762510966065925     53.67222613577219        0.07085777802058447
-8                        3.719209493164947        53.80830630948126        0.07303387691662949
-8                        -8                       56.410256410256466       0.060835734391481516
-8                        8                        56.410256410256466       0.05957337028906622
-8                        -3.7380049160844417      56.28717948717963        0.07130946864560947
-8                        -1.8864013985029755      54.9630891066204         0.07046614464472963
-8                        1.8138408946511915       55.020280691438515       0.06010414175022782
-8                        -0.040378808697045354    56.258197748145754       0.06349361260220383
-8                        3.7185450841743712       56.37222818744425        0.06415289294505173
-8                        5.776102277530526        57.69230769230775        0.056340227476177916
-8                        -5.776102277530525       57.69230769230778        0.05935130948894515
-8                        -8                       58.97435897435903        0.05374931325048934
-8                        -1.8843285166570252      57.51542157901107        0.06892466962945772
-8                        -3.7380049160844417      58.85128205128218        0.05256459678398858
-8                        8                        58.97435897435903        0.049513907916782986
-8                        5.776102277530525        60.256410256410334       0.04597109164182641
-8                        -5.776102277530525       60.256410256410334       0.0525235360107408
-8                        1.8245352842721374       57.58665976833659        0.054791042966654636
-8                        -0.03840753766844829     58.826135885578125       0.06341860679901823
-8                        3.7180422825573203       58.93618978380886        0.0483403638692727
-8                        -8                       61.5384615384616         0.046233284393388786
-8                        8                        61.5384615384616         0.04468046945100925
-8                        -3.7380049160844404      61.41538461538476        0.056546511602460214
-8                        -1.8873040674358725      60.08268175134639        0.05608309061281249
-8                        1.8105366989972946       60.14772975529965        0.050995301916810794
-8                        -0.053505816490180276    61.36612471132928        0.04627640719993512
-8                        3.717773350464043        61.500369270247674       0.04869810417542956
-8                        5.776102277530519        62.82051282051292        0.043562939046446224
-8                        -5.776102277530519       62.82051282051292        0.055173844808572244
-8                        -8                       64.10256410256417        0.04307684998609101
-8                        -1.882404422309085       62.6365289117421         0.05609112283123326
-8                        -3.7380049160844364      63.979487179487315       0.05503430430074888
-8                        8                        64.10256410256417        0.03365465994594031
-8                        5.776102277530514        65.38461538461546        0.04067128948692588
-8                        -5.776102277530514       65.38461538461546        0.047079785407664686
-8                        1.8115140867146753       62.71351559729347        0.04562559584607418
-8                        -0.04657919364945373     63.9354389574244         0.04671815676329683
-8                        3.7151263087981583       64.06483214538041        0.05061768211614174
-8                        -8                       66.66666666666673        0.038474553869194315
-8                        8                        66.66666666666673        0.040081595745351986
-8                        -3.7380049160844364      66.5435897435899         0.039904321560618995
-8                        -1.8794389840534655      65.2095196074543         0.052244772133374896
-8                        1.8125170056119124       65.27845774696345        0.04376777964348166
-8                        -0.04212431538076622     66.48550378611553        0.04369352191736664
-8                        3.693058412433663        66.63337299282763        0.04442241631165474
-8                        5.7761022775305255       67.94871794871804        0.04066426403839476
-8                        -5.776102277530525       67.94871794871804        0.034848580145727136
-8                        -8                       69.2307692307693         0.035461650159024145
-8                        -1.8683100900738228      67.76112617175414        0.037722095553637265
-8                        -3.7380049160844373      69.10769230769247        0.03181816788311088
-8                        8                        69.2307692307693         0.04194919108204135
-8                        5.776102277530514        70.51282051282061        0.040325071865495825
-8                        -5.776102277530514       70.51282051282061        0.039790199442612126
-8                        1.8200252330299218       67.83681060341897        0.03730691830648446