% Model:              Cav_Hex_Unif_flux_v5.1 - Base Case.mph
% Version:            COMSOL 5.5.0.359
% Date:               May 16 2022, 15:15
% Dimension:          3
% Nodes:              4823
% Expressions:        1
% Description:        Surface
% x                       y                        z                        Color
-4                        -4                       0                        0.2906378481801192
-2.9920541778741505       -4.3999999999999995      0                        0.2854011301948918
-4.4                      -4.4                     0                        0.2729639249799768
-4.4                      -2.992054177874187       0                        0.3037296431431875
4                         -4                       0                        0.3053661175135711
4.3999999999999995        -2.9920541778741314      0                        0.3482417460176202
4.4                       -4.4                     0                        0.29456538666903964
-4                        4                        0                        0.2621631941354453
-4.3999999999999995       2.992054177874185        0                        0.2958745661653465
-4.4                      4.4                      0                        0.282782771202278
-2.6666666666666656       -4                       0                        0.301111284150574
4                         4                        0                        0.28376465582450816
2.9920541778741283        4.400000000000001        0                        0.3299132330693244
4.4                       4.4                      0                        0.28278277120227807
-4                        2.6666666666666656       0                        0.3037296431431877
2.6666666666666656        4                        0                        0.325985694580404
4                         -2.666666666666665       0                        0.3456233870250065
-1.50006247644149         -4.4                     0                        0.3194397970988699
-4.3999999999999995       1.5000624764415353       0                        0.3259856945804041
-4                        -2.666666666666666       0                        0.30896636112841486
-4.4                      -1.500062476441879       0                        0.3220581560914833
-2.9920541778741256       4.4                      0                        0.2801644122096643
1.50006247644149          4.4                      0                        0.3089663611284151
4.4                       -1.500062476441756       0                        0.32467651508409706
4.4                       2.992054177874135        0                        0.2736185147281302
2.9920541778741483        -4.4                     0                        0.2683817967429028
2.666666666666666         -4                       0                        0.2840919506985849
1.5000624764414938        -4.4                     0                        0.3299132330693244
-1.3333333333333328       -3.999999999999999       0                        0.32991323306932463
0                         -4.4                     0                        0.3387501946693957
-4                        -1.333333333333334       0                        0.31027554062472174
-4.4                      1.6439627437137005E-13   0                        0.32107627146925327
-3.999999999999999        1.3877787807814457E-17   0                        0.30831177138026145
-2.666666666666666        4                        0                        0.28278277120227807
-1.500062476441586        4.400000000000001        0                        0.32860405357301753
-3.999999999999999        1.3333333333333328       0                        0.3194397970988699
-1.333333333333334        4                        0                        0.31813061760256284
8.268385975895853E-14     4.4                      0                        0.31420307911364237
4.000000000000001         -1.3333333333333306      0                        0.3155122586099491
4.4                       0                        0                        0.31420307911364226
1.333333333333334         -4                       0                        0.3312224125656313
-1.3877787807814457E-17   -3.999999999999999       0                        0.29652915591349993
4                         2.666666666666665        0                        0.3181306176025628
4.4                       1.5000624764412833       0                        0.3469325665213134
4                         1.3333333333333313       0                        0.3390774895434722
1.3333333333333328        3.999999999999999        0                        0.2945653866690398
1.3877787807814457E-17    3.999999999999999        0                        0.3024204636468807
3.999999999999999         -1.3877787807814457E-17  0                        0.3142030791136422
-4                        -3.1074256637010818      0.9199367662118041       0.05221639571934672
-3.999999999999999        -3.999999999999999       1.3245033112582785       0.04324199317571464
-4                        -4                       0                        0.03719390600100354
-4                        -2.666666666666666       0                        0.05937536401708773
-4                        3.0747369684025205       0.8888064185075706       0.03521099062545565
-4                        2.6666666666666656       0                        0.03856999982151534
-4                        4                        0                        0.03546582678004622
-3.999999999999999        3.999999999999999        1.3245033112582785       0.035989984557406464
-4                        1.9754251660009035       1.0350961621053978       0.05042926099343642
-3.999999999999999        1.3333333333333328       0                        0.0568754859104621
-4                        4                        2.649006622516557        0.04121282589547345
-4                        2.7451747987511625       2.0778673477792386       0.04306497895509113
-4                        0.6666666666666661       1.1528241500043945       0.05198823137169057
-3.999999999999999        1.3877787807814457E-17   0                        0.057715971544608134
-4                        -0.5671277402680284      1.1115538003755534       0.061459172217030955
-4                        -1.333333333333334       0                        0.06713396198051737
-4                        -1.9142013189698064      1.2509265278637607       0.06636606432303081
-4                        -2.956260459858097       2.024254036688955        0.05352595183860911
-4                        -4                       2.649006622516557        0.04965503072181406
-4                        -0.9523709265210606      2.104075424329055        0.05708120170817954
-4                        -2.8498523081971534      3.3112582781456896       0.05522583085221855
-4                        -4                       3.9735099337748343       0.0492672839171038
-4                        1.3659725621850731       2.091079056341094        0.05010665594026612
-4                        2.8531599255238147       3.3776803038500725       0.050474336280441845
-4                        4                        3.9735099337748343       0.04492167793698056
-4                        -2.849852308197148       4.635761589403964        0.05675210469076139
-4                        -4                       5.298013245033114        0.05004081973231791
-4                        1.8242278298002734       2.956426395851053        0.047558494964898466
-4                        0.13548563583149864      2.1563664444932074       0.043157737006067974
-4                        -1.866083468280541       2.68989271413771         0.05613237030278135
-4                        -0.5499619762764699      3.362090466980872        0.058487185915065236
-4                        -1.7321975836865393      4.042134436903777        0.06205442027884025
-4                        0.8493301775178121       3.1674079577634906       0.05577642232922281
-4                        4                        5.298013245033114        0.048111238518767425
-4                        2.849852308197148        4.635761589403964        0.056514061558363866
-4                        1.7720005635865148       3.9876939136795126       0.05544849214339124
-4                        -2.8498523081971605      5.960264900662283        0.04667331030724512
-3.999999999999999        -3.999999999999999       6.622516556291392        0.04449672783933042
-4                        -1.707870031213493       5.403973509933802        0.05396058777497623
-4                        2.8498523081971605       5.96026490066226         0.04967175438424204
-3.999999999999999        3.999999999999999        6.622516556291392        0.036867678762872585
-4                        2.849852308197159        7.284768211920534        0.04418649480111119
-3.999999999999999        3.999999999999999        7.94701986754967         0.039393081291528804
-4                        1.6997046163943201       6.622516556291414        0.054519226530809504
-4                        -0.5699704616394303      4.900662251655663        0.0658959118023028
-4                        0.6049282103932478       4.443141508172911        0.06034761239985024
-4                        0.5689922407490826       5.795711222664613        0.05756309603344243
-4                        1.6997046163943033       5.298013245033162        0.055471020834208656
-4                        -2.849852308197159       7.284768211920534        0.048104944569463716
-3.999999999999999        -3.999999999999999       7.94701986754967         0.04187527229434738
-4                        -1.7078700312134965      6.7284768211920865       0.04875219581179619
-4                        -0.5709826472994184      6.255830986254818        0.05966239442876742
-4                        0.5630029124750511       7.124892267795124        0.04843205944332812
-4                        -2.849852308197148       8.609271523178808        0.05488285487524247
-4                        -4                       9.27152317880795         0.03991007007136241
-4                        1.6997046163943084       7.947019867549655        0.049516263959124764
-4                        2.849852308197148        8.609271523178808        0.04640232997174112
-4                        4                        9.27152317880795         0.035926053026994684
-4                        -1.7078700312134993      8.05298013245036         0.06131894687522976
-4                        -0.5721805129542246      7.58126984428753         0.050244045885660886
-4                        0.5620046910960461       8.450175201365441        0.047943999589356155
-4                        -2.8498523081971543      9.933774834437104        0.05186789072928986
-4.000000000000001        -4.000000000000001       10.59602649006623        0.04085885384053269
-4                        -0.5723801572300271      8.905929080008212        0.05708372312905082
-4                        -1.7078700312134947      9.377483443708634        0.0654152540855361
-4.000000000000001        4.000000000000001        10.59602649006623        0.032957619877523305
-4                        2.8498523081971543       9.933774834437104        0.04756324896808604
-4                        1.6997046163943061       9.271523178807971        0.04875632873571128
-4                        0.5618383208662135       9.774808449675698        0.052443127832548946
-4                        -0.5724134312759936      10.230458378676898       0.04692279622336315
-4                        -2.849852308197167       11.258278145695366       0.050337096524958415
-4                        -4                       11.920529801324506       0.042313339465079126
-4                        -1.7078700312134985      10.701986754966908       0.05848250924782417
-4                        -2.849852308197155       12.582781456953642       0.04602716224392489
-4                        -0.5724189769503222      11.554966021170221       0.04603741777676756
-4                        4                        11.920529801324506       0.0283298937123634
-4                        2.849852308197161        11.258278145695366       0.03832225298427503
-4                        1.6997046163943172       10.596026490066226       0.05297551551615204
-4                        0.5618105924945729       11.099333417109314       0.048116546621815935
-3.999999999999999        -3.999999999999999       13.245033112582783       0.03886793941285723
-4                        -1.7078700312135018      12.026490066225183       0.055063646948508606
-3.999999999999999        3.999999999999999        13.245033112582783       0.027835649365968804
-4                        2.8498523081971543       12.582781456953642       0.035987827261366116
-4                        1.6997046163943121       11.920529801324498       0.04166961543035518
-4                        0.5618059710992984       12.423840337730162       0.04087293634329356
-4                        -2.8498523081971543      13.907284768211936       0.045224890538323965
-4.000000000000001        -4.000000000000001       14.569536423841065       0.04268997868232858
-4                        -0.5724199012293782      12.879470054301034       0.043791506712193194
-4                        -1.707870031213497       13.350993377483478       0.050752657056754136
-4                        -2.849852308197155       15.23178807947021        0.03997688183958705
-4                        -0.572420055275886       14.203973485871392       0.0474405452503193
-4.000000000000001        4.000000000000001        14.569536423841065       0.040151503995923245
-4                        2.8498523081971543       13.907284768211936       0.037037655482737554
-4                        1.6997046163943086       13.245033112582794       0.04777338615220964
-4                        0.5618052008667522       13.748344250548872       0.047217709847823315
-3.999999999999999        -3.999999999999999       15.894039735099344       0.028089922229630235
-4                        -1.7078700312134956      14.675496688741752       0.044467533965300565
-3.999999999999999        3.999999999999999        15.894039735099344       0.04166961503657424
-4                        2.849852308197155        15.23178807947021        0.03537087200894808
-4                        1.6997046163943095       14.569536423841068       0.039522130643717845
-4                        0.5618050724946624       15.072847662067215       0.045372776162877104
-4                        -2.849852308197156       16.556291390728507       0.0354439644032506
-3.999999999999999        -3.999999999999999       17.21854304635762        0.026025449996216463
-4                        -0.572420080950302       15.528476817181682       0.047621136687678894
-4                        -1.7078700312134958      16.000000000000036       0.03844335697192753
-4                        -0.5724200852293716      16.85298013178198        0.041401806602084146
-4                        -2.8498523081971534      17.88079470198676        0.03440053247093476
-3.999999999999999        3.999999999999999        17.21854304635762        0.032780514921406344
-4                        2.849852308197157        16.556291390728507       0.040157421910090675
-4                        1.6997046163943077       15.894039735099351       0.04224853757114399
-4                        0.5618050510993164       16.3973509900355         0.053529563213698096
-3.999999999999999        -3.999999999999999       18.543046357615896       0.025196278485078622
-4                        -1.7078700312134956      17.32450331125831        0.03803971097642916
-3.999999999999999        3.999999999999999        18.543046357615896       0.02040436192118907
-4                        2.8498523081971534       17.88079470198676        0.0261738423386396
-4                        1.699704616394316        17.218543046357638       0.04973909376075775
-4                        0.5618050475334257       17.72185430407879        0.048027384182494026
-4                        -0.5724200859425501      18.177483443597243       0.03713089495691027
-4                        -1.7078700312134971      18.649006622516588       0.03693175102737501
-4                        -2.849852308197157       19.205298013245045       0.029046469498170125
-4                        -4                       19.867549668874176       0.027313778949025074
-4                        -0.5724200860614133      19.50198675494835        0.04370267067675384
-4                        -2.849852308197157       20.52980132450333        0.032596286226179584
-4                        -4                       21.192052980132456       0.02856294275283608
-4                        4                        19.867549668874176       0.02693973204348736
-4                        2.849852308197157        19.20529801324504        0.030049089579056068
-4                        1.699704616394313        18.5430463576159         0.04038036599599174
-4                        0.5618050469391092       19.046357615801227       0.038664515695390006
-4                        4                        21.192052980132456       0.025116022566104946
-4                        2.849852308197157        20.529801324503328       0.03206005762119498
-4                        1.6997046163943121       19.867549668874172       0.04395212506880089
-4                        0.5618050468400577       20.370860927136857       0.046200321255904765
-4                        -1.707870031213497       19.973509933774857       0.039225231014311406
-4                        -0.5724200860812241      20.826490066222092       0.0435828779567806
-4                        -1.7078700312134965      21.298013245033133       0.03781819662977045
-4                        -2.849852308197157       21.854304635761594       0.02763127841192777
-3.999999999999999        -3.999999999999999       22.516556291390728       0.026947485479145567
-4                        1.699704616394315        21.19205298013246        0.04110517464504531
-4                        2.849852308197158        21.85430463576159        0.031336039774612745
-3.999999999999999        3.999999999999999        22.516556291390728       0.02707451670040531
-3.999999999999999        3.999999999999999        23.841059602649004       0.02225229053149093
-4                        2.8498523081971543       23.178807947019866       0.03512221683744204
-4                        1.699704616394314        22.51655629139073        0.03717401667542151
-4                        0.5618050468235483       21.695364238408036       0.03515960511631719
-4                        -0.5724200860845257      22.15099337748294        0.04052312445344071
-4                        0.5618050468207958       23.019867549668472       0.03608747276785471
-4                        -1.7078700312134971      22.622516556291405       0.037150342230959865
-4                        -2.8498523081971534      23.178807947019862       0.02950041334758163
-3.999999999999999        -3.999999999999999       23.841059602649004       0.015723361816934938
-4                        -2.8498523081971565      24.503311258278153       0.024576347668019832
-4                        -1.7078700312134965      23.947019867549677       0.03574880823687159
-4                        -0.5724200860850763      23.47549668874165        0.03993210429586214
-4                        2.8498523081971565       24.50331125827815        0.02992578456047838
-4                        4                        25.165562913907284       0.022315970689472487
-4                        -4                       25.165562913907284       0.01864191482233231
-4                        1.6997046163943104       23.84105960264902        0.03951096910264533
-4                        0.5618050468203366       24.34437086092709        0.03535885741990761
-4                        -2.8498523081971543      25.82781456953642        0.027123705405950466
-4                        -4                       26.490066225165563       0.01994011053716711
-4                        -1.7078700312134956      25.271523178807964       0.02921839706788758
-4                        -0.5724200860851684      24.800000000000004       0.03903773276721025
-4                        0.5618050468202612       25.66887417218543        0.03443413239015749
-4                        1.6997046163943106       25.165562913907294       0.03275014979273685
-4                        4                        26.490066225165563       0.016542397553047917
-4                        2.8498523081971543       25.82781456953642        0.025822809810264
-4                        -0.5724200860851827      26.124503311258284       0.034386650605588716
-4                        -1.7078700312134958      26.596026490066226       0.03333598631800505
-4                        -2.8498523081971534      27.15231788079471        0.02861766377479309
-4                        -4                       27.81456953642384        0.017173289369725352
-4                        -2.84985230819716        28.47682119205298        0.020658495112630796
-4                        -4                       29.139072847682122       0.00920165588809209
-4                        0.5618050468202505       26.99337748344373        0.02779155452431988
-4                        1.6997046163943124       26.490066225165577       0.028486761767670437
-4                        1.699704616394315        27.81456953642385        0.02190188154459714
-4                        0.5618050468202442       28.31788079470201        0.038925967909274745
-4                        2.8498523081971543       27.152317880794712       0.01930724688731672
-4                        4                        27.81456953642384        0.015831640199886327
-4                        4                        29.139072847682122       0.02263657256618651
-4                        2.8498523081971605       28.47682119205298        0.015659224234839637
-4                        2.8498523081971516       29.801324503311267       0.020604490519039658
-4                        4                        30.4635761589404         0.0218768676571179
-4                        -1.7078700312134958      27.920529801324513       0.03006025533677517
-4                        -0.572420086085186       27.44900662251658        0.03702196511858832
-4                        -0.5724200860851862      28.773509933774854       0.031642273594824494
-4                        1.6997046163943077       29.139072847682115       0.023672276266786793
-4                        -1.7078700312134965      29.245033112582796       0.02465183701514499
-4                        -2.849852308197148       29.801324503311257       0.01860922637866069
-4                        -4                       30.4635761589404         0.009319398099350245
-4                        -0.5724200860851865      30.09801324503314        0.030205107660904205
-4                        0.5618050468202433       29.642384105960275       0.029799133730362432
-4                        1.6997046163943068       30.46357615894041        0.016888321098843775
-4                        2.8498523081971543       31.125827814569554       0.022335121797476053
-4                        4                        31.78807947019868        0.012877063755847955
-4                        2.849852308197158        32.45033112582782        0.020631114768868846
-4                        4                        33.11258278145696        0.015168638162255194
-4                        -1.7078700312134947      30.569536423841082       0.030583672782566112
-4                        -2.849852308197157       31.125827814569544       0.020805182114279352
-4                        -4                       31.78807947019868        0.01822776412763919
-4                        0.5618050468202451       30.96688741721858        0.019199429667338227
-4                        -0.5724200860851862      31.422516556291413       0.02405840441100208
-4                        -1.7078700312134956      31.89403973509937        0.019809452847698042
-4                        -2.849852308197157       32.45033112582783        0.02042884975499529
-4                        -4                       33.11258278145696        0.019144370859406293
-4                        4                        34.437086092715234       0.013970195896359583
-4                        2.849852308197155        33.774834437086085       0.017793347450771473
-4                        1.699704616394314        31.78807947019868        0.023832459757554367
-4                        1.699704616394314        33.112582781456965       0.022606154068097056
-4                        0.5618050468202478       32.291390728476834       0.024525931272938683
-4                        -0.572420086085186       32.74701986754969        0.02184763118609703
-4                        -1.7078700312134965      33.21854304635764        0.018576374707503743
-4                        -2.8498523081971543      33.774834437086085       0.017999559579578828
-4                        -4                       34.437086092715234       0.01568419352518632
-4                        -2.849852308197157       35.099337748344375       0.014663624815768217
-4                        -4                       35.76158940397351        0.01641833178791943
-4                        2.8498523081971543       35.099337748344375       0.008825063834304581
-4                        4                        35.76158940397351        0.008606215978621953
-4                        2.8498523081971516       36.42384105960266        0.009437732033767982
-4                        4                        37.08609271523179        0.010185169037716409
-4                        0.5618050468202451       33.6158940397351         0.022429192551081185
-4                        -0.5724200860851871      34.07152317880797        0.017467385862914995
-4                        0.5618050468202433       34.9403973509934         0.020213728390372988
-4                        1.6997046163943095       34.43708609271524        0.015914869510825515
-4                        -1.7078700312134971      34.5430463576159         0.01838947423938866
-4                        -1.7078700312134965      35.86754966887419        0.01797229953266701
-4                        1.6997046163943104       35.76158940397352        0.01697794908706873
-4                        -0.5724200860851871      35.396026490066234       0.013065149399282475
-4                        -2.8498523081971507      36.42384105960266        0.013505533698843464
-4                        -4                       37.08609271523179        0.012749468648905598
-4                        0.561805046820246        36.26490066225168        0.01406738129804091
-4                        1.6997046163943121       37.086092715231814       0.009311491220733869
-4                        2.8498523081971623       37.74834437086094        0.007708209126003312
-4                        4                        38.41059602649007        0.004672031319018996
-4                        -1.7078700312134965      37.19205298013246        0.008264820852554877
-4                        -0.5724200860851862      36.72052980132452        0.011277063516120872
-4                        -2.849852308197163       37.74834437086092        0.007473775366153222
-4                        -4                       38.41059602649007        0.012654156697323117
-4                        -1.7078700312134965      38.51655629139075        0.008078873721195931
-4                        -2.8498523081971507      39.0728476821192         0.011417981959826365
-4                        -4                       39.735099337748345       0.013599719024663648
-4                        0.561805046820246        37.58940397350996        0.010284058913970603
-4                        1.6997046163943121       38.41059602649007        0.011772240804976906
-4                        4                        39.735099337748345       0.007132004212889874
-4                        2.8498523081971516       39.07284768211922        0.006994610764346987
-4                        0.5618050468202487       38.91390728476824        0.012111219960915085
-4                        -0.5724200860851854      38.045033112582814       0.008116222944127456
-4                        -0.5724200860851847      39.36953642384109        0.012452753744115294
-4                        -1.707870031213495       39.84105960264902        0.013541199540775139
-4                        -2.849852308197157       40.397350993377486       0.010426450020319826
-4.000000000000001        -4.000000000000001       41.05960264900662        0.010974640685524046
-4                        1.6997046163943164       39.73509933774836        0.008962509526517734
-4                        0.5618050468202469       40.23841059602649        0.009184056331281778
-4                        2.8498523081971605       40.397350993377486       0.007050241639944883
-4.000000000000001        4.000000000000001        41.05960264900662        0.010635101045531045
-4                        1.699704616394315        41.05960264900662        0.004664211506370445
-4                        2.8498523081971543       41.721854304635755       0.010986734748972285
-4                        4                        42.384105960264904       0.010555738137638859