% Model:              Cav_Hex_Unif_flux_v5.1 - Base Case.mph
% Version:            COMSOL 5.5.0.359
% Date:               May 16 2022, 15:15
% Dimension:          3
% Nodes:              4878
% Expressions:        1
% Description:        Surface
% x                       y                        z                        Color
-4                        -4                       0                        0.22605165969564814
-2.9920541778741505       -4.3999999999999995      0                        0.22197865681824913
-4.4                      -4.4                     0                        0.21230527498442625
-4.4                      -2.992054177874187       0                        0.23623416688914575
4                         -4                       0                        0.23750698028833303
4.3999999999999995        -2.9920541778741314      0                        0.27085469134703793
4.4                       -4.4                     0                        0.22910641185369746
-4                        4                        0                        0.2039047065497907
-4.3999999999999995       2.992054177874185        0                        0.2301246625730472
-4.4                      4.4                      0                        0.2199421553795495
-2.6666666666666656       -4                       0                        0.2341976654504464
4                         4                        0                        0.22070584341906185
2.9920541778741283        4.400000000000001        0                        0.2565991812761412
4.4                       4.4                      0                        0.21994215537954953
-4                        2.6666666666666656       0                        0.23623416688914592
2.6666666666666656        4                        0                        0.25354442911809194
4                         -2.666666666666665       0                        0.26881818990833833
-1.50006247644149         -4.4                     0                        0.2484531755213432
-4.3999999999999995       1.5000624764415353       0                        0.25354442911809205
-4                        -2.666666666666666       0                        0.24030716976654487
-4.4                      -1.500062476441879       0                        0.2504896769600425
-2.9920541778741256       4.4                      0                        0.21790565394085
1.50006247644149          4.4                      0                        0.24030716976654506
4.4                       -1.500062476441756       0                        0.2525261783987421
4.4                       2.992054177874135        0                        0.21281440034410115
2.9920541778741483        -4.4                     0                        0.2087413974667021
2.666666666666666         -4                       0                        0.22096040609889933
1.5000624764414938        -4.4                     0                        0.2565991812761412
-1.3333333333333328       -3.999999999999999       0                        0.25659918127614134
0                         -4.4                     0                        0.2634723736317522
-4                        -1.333333333333334       0                        0.24132542048589464
-4.4                      1.6439627437137005E-13   0                        0.2497259889205303
-3.999999999999999        1.3877787807814457E-17   0                        0.23979804440686997
-2.666666666666666        4                        0                        0.21994215537954953
-1.500062476441586        4.400000000000001        0                        0.2555809305567914
-3.999999999999999        1.3333333333333328       0                        0.2484531755213432
-1.333333333333334        4                        0                        0.24743492480199328
8.268385975895853E-14     4.4                      0                        0.24438017264394402
4.000000000000001         -1.3333333333333306      0                        0.24539842336329368
4.4                       0                        0                        0.24438017264394396
1.333333333333334         -4                       0                        0.2576174319954909
-1.3877787807814457E-17   -3.999999999999999       0                        0.2306337879327221
4                         2.666666666666665        0                        0.24743492480199322
4.4                       1.5000624764412833       0                        0.26983644062768813
4                         1.3333333333333313       0                        0.26372693631158955
1.3333333333333328        3.999999999999999        0                        0.2291064118536976
1.3877787807814457E-17    3.999999999999999        0                        0.23521591616979604
3.999999999999999         -1.3877787807814457E-17  0                        0.24438017264394396
-4                        -3.1074256637010818      0.9199367662118041       0.04906475117494215
-3.999999999999999        -3.999999999999999       1.3245033112582785       0.04170402016680061
-4                        -4                       0                        0.0365250395944645
-4                        -2.666666666666666       0                        0.054883086528388435
-4                        3.0747369684025205       0.8888064185075706       0.036576365694597386
-4                        2.6666666666666656       0                        0.03912115840581371
-4                        4                        0                        0.03573792969113579
-3.999999999999999        3.999999999999999        1.3245033112582785       0.037414014171627076
-4                        1.9754251660009035       1.0350961621053978       0.049307177848468324
-3.999999999999999        1.3333333333333328       0                        0.05532170549054909
-4                        4                        2.649006622516557        0.045674813213134435
-4                        2.7451747987511625       2.0778673477792386       0.04404151976976143
-4                        0.6666666666666661       1.1528241500043945       0.04977069077540076
-3.999999999999999        1.3877787807814457E-17   0                        0.054924634903577435
-4                        -0.5671277402680284      1.1115538003755534       0.05750962903537787
-4                        -1.333333333333334       0                        0.06309731783430556
-4                        -1.9142013189698064      1.2509265278637607       0.0617230817274949
-4                        -2.956260459858097       2.024254036688955        0.05058196168929898
-4                        -4                       2.649006622516557        0.04872098200470909
-4                        -0.9523709265210606      2.104075424329055        0.05472256370455545
-4                        -2.8498523081971534      3.3112582781456896       0.0553367835158294
-4                        -4                       3.9735099337748343       0.05122145659190037
-4                        1.3659725621850731       2.091079056341094        0.04744942294523625
-4                        2.8531599255238147       3.3776803038500725       0.0530292096802976
-4                        4                        3.9735099337748343       0.050447567142854303
-4                        -2.849852308197148       4.635761589403964        0.05820299085213227
-4                        -4                       5.298013245033114        0.05278900490908645
-4                        1.8242278298002734       2.956426395851053        0.04590615802457211
-4                        0.13548563583149864      2.1563664444932074       0.04377873392658447
-4                        -1.866083468280541       2.68989271413771         0.05530969137544056
-4                        -0.5499619762764699      3.362090466980872        0.06025366992848501
-4                        -1.7321975836865393      4.042134436903777        0.06323461041471286
-4                        0.8493301775178121       3.1674079577634906       0.05428401383032575
-4                        4                        5.298013245033114        0.05195470455689908
-4                        2.849852308197148        4.635761589403964        0.05981893028951698
-4                        1.7720005635865148       3.9876939136795126       0.056276170310808
-4                        -2.8498523081971605      5.960264900662283        0.051064086374242416
-3.999999999999999        -3.999999999999999       6.622516556291392        0.050542806737463725
-4                        -1.707870031213493       5.403973509933802        0.0567749714600542
-4                        2.8498523081971605       5.96026490066226         0.05410582131044655
-3.999999999999999        3.999999999999999        6.622516556291392        0.04489090723439248
-4                        2.849852308197159        7.284768211920534        0.04947081180663046
-3.999999999999999        3.999999999999999        7.94701986754967         0.0446412895387067
-4                        1.6997046163943201       6.622516556291414        0.05773953956192207
-4                        -0.5699704616394303      4.900662251655663        0.06772125417349124
-4                        0.6049282103932478       4.443141508172911        0.06191232535384741
-4                        0.5689922407490826       5.795711222664613        0.059603247664543335
-4                        1.6997046163943033       5.298013245033162        0.05812692316611565
-4                        -2.849852308197159       7.284768211920534        0.05408811893872592
-3.999999999999999        -3.999999999999999       7.94701986754967         0.04716518673141858
-4                        -1.7078700312134965      6.7284768211920865       0.05426058765065569
-4                        -0.5709826472994184      6.255830986254818        0.06096677030356287
-4                        0.5630029124750511       7.124892267795124        0.05336329612768533
-4                        -2.849852308197148       8.609271523178808        0.05780612422184509
-4                        -4                       9.27152317880795         0.04403225855968159
-4                        1.6997046163943084       7.947019867549655        0.0527433740359896
-4                        2.849852308197148        8.609271523178808        0.051558818419355786
-4                        4                        9.27152317880795         0.0427475740627327
-4                        -1.7078700312134993      8.05298013245036         0.06553068678073985
-4                        -0.5721805129542246      7.58126984428753         0.05586899883970984
-4                        0.5620046910960461       8.450175201365441        0.05145053584416731
-4                        -2.8498523081971543      9.933774834437104        0.05528668507096362
-4.000000000000001        -4.000000000000001       10.59602649006623        0.045875129328154275
-4                        -0.5723801572300271      8.905929080008212        0.059437154030490796
-4                        -1.7078700312134947      9.377483443708634        0.06635895197809809
-4.000000000000001        4.000000000000001        10.59602649006623        0.040124452465951366
-4                        2.8498523081971543       9.933774834437104        0.05350548568811092
-4                        1.6997046163943061       9.271523178807971        0.053218124786541976
-4                        0.5618383208662135       9.774808449675698        0.05548771307094205
-4                        -0.5724134312759936      10.230458378676898       0.05056452175063388
-4                        -2.849852308197167       11.258278145695366       0.05366916717968825
-4                        -4                       11.920529801324506       0.04535119457219427
-4                        -1.7078700312134985      10.701986754966908       0.05919006444786152
-4                        -2.849852308197155       12.582781456953642       0.04884000174974071
-4                        -0.5724189769503222      11.554966021170221       0.04885089448466507
-4                        4                        11.920529801324506       0.0331140435998983
-4                        2.849852308197161        11.258278145695366       0.04449383111306055
-4                        1.6997046163943172       10.596026490066226       0.05587482493144139
-4                        0.5618105924945729       11.099333417109314       0.052642637539553845
-3.999999999999999        -3.999999999999999       13.245033112582783       0.041302073637871924
-4                        -1.7078700312135018      12.026490066225183       0.055622062634980984
-3.999999999999999        3.999999999999999        13.245033112582783       0.033351957233558986
-4                        2.8498523081971543       12.582781456953642       0.040486058615122195
-4                        1.6997046163943121       11.920529801324498       0.0469798789271168
-4                        0.5618059710992984       12.423840337730162       0.04600500352666514
-4                        -2.8498523081971543      13.907284768211936       0.04752547831352102
-4.000000000000001        -4.000000000000001       14.569536423841065       0.045412323663112826
-4                        -0.5724199012293782      12.879470054301034       0.046548340156297996
-4                        -1.707870031213497       13.350993377483478       0.05244799294485084
-4                        -2.849852308197155       15.23178807947021        0.042572345890138974
-4                        -0.572420055275886       14.203973485871392       0.049188909628179935
-4.000000000000001        4.000000000000001        14.569536423841065       0.044572028389328146
-4                        2.8498523081971543       13.907284768211936       0.041886578131859316
-4                        1.6997046163943086       13.245033112582794       0.04966165060924366
-4                        0.5618052008667522       13.748344250548872       0.04948005700374461
-3.999999999999999        -3.999999999999999       15.894039735099344       0.03405532082056905
-4                        -1.7078700312134956      14.675496688741752       0.04715352371166689
-3.999999999999999        3.999999999999999        15.894039735099344       0.04437428324366962
-4                        2.849852308197155        15.23178807947021        0.04049275601644837
-4                        1.6997046163943095       14.569536423841068       0.04361892827721143
-4                        0.5618050724946624       15.072847662067215       0.04827084923905308
-4                        -2.849852308197156       16.556291390728507       0.03802286477134223
-3.999999999999999        -3.999999999999999       17.21854304635762        0.03149325760239367
-4                        -0.572420080950302       15.528476817181682       0.05075430947937228
-4                        -1.7078700312134958      16.000000000000036       0.04118870862246475
-4                        -0.5724200852293716      16.85298013178198        0.04363310495233555
-4                        -2.8498523081971534      17.88079470198676        0.03617342561600125
-3.999999999999999        3.999999999999999        17.21854304635762        0.036551328195570366
-4                        2.849852308197157        16.556291390728507       0.042444202193187626
-4                        1.6997046163943077       15.894039735099351       0.043292469229385316
-4                        0.5618050510993164       16.3973509900355         0.053059027492679676
-3.999999999999999        -3.999999999999999       18.543046357615896       0.031863516623927855
-4                        -1.7078700312134956      17.32450331125831        0.0383747439801625
-3.999999999999999        3.999999999999999        18.543046357615896       0.02559744584271147
-4                        2.8498523081971534       17.88079470198676        0.03138629285980464
-4                        1.699704616394316        17.218543046357638       0.04797995814816261
-4                        0.5618050475334257       17.72185430407879        0.04765989627509995
-4                        -0.5724200859425501      18.177483443597243       0.03833165750885421
-4                        -1.7078700312134971      18.649006622516588       0.03694401983374529
-4                        -2.849852308197157       19.205298013245045       0.032307331474164876
-4                        -4                       19.867549668874176       0.030135131274404276
-4                        -0.5724200860614133      19.50198675494835        0.04268676685216478
-4                        -2.849852308197157       20.52980132450333        0.03380675266066046
-4                        -4                       21.192052980132456       0.02996000731874987
-4                        4                        19.867549668874176       0.02860906014373445
-4                        2.849852308197157        19.20529801324504        0.031970179538440474
-4                        1.699704616394313        18.5430463576159         0.04085695592607675
-4                        0.5618050469391092       19.046357615801227       0.03912209699571684
-4                        4                        21.192052980132456       0.026370062708168596
-4                        2.849852308197157        20.529801324503328       0.032502239664273506
-4                        1.6997046163943121       19.867549668874172       0.042937456744151475
-4                        0.5618050468400577       20.370860927136857       0.044437479581164945
-4                        -1.707870031213497       19.973509933774857       0.03927135672205526
-4                        -0.5724200860812241      20.826490066222092       0.04199680012745089
-4                        -1.7078700312134965      21.298013245033133       0.03631754838537568
-4                        -2.849852308197157       21.854304635761594       0.028714726868334456
-3.999999999999999        -3.999999999999999       22.516556291390728       0.027962256359299355
-4                        1.699704616394315        21.19205298013246        0.0393948438154179
-4                        2.849852308197158        21.85430463576159        0.03144150573420155
-3.999999999999999        3.999999999999999        22.516556291390728       0.028187299465534093
-3.999999999999999        3.999999999999999        23.841059602649004       0.02305882851284435
-4                        2.8498523081971543       23.178807947019866       0.03301229916607385
-4                        1.699704616394314        22.51655629139073        0.034940274738634834
-4                        0.5618050468235483       21.695364238408036       0.03459506088031827
-4                        -0.5724200860845257      22.15099337748294        0.03895552593471254
-4                        0.5618050468207958       23.019867549668472       0.03454383867261121
-4                        -1.7078700312134971      22.622516556291405       0.03499509500423015
-4                        -2.8498523081971534      23.178807947019862       0.029439339100527945
-3.999999999999999        -3.999999999999999       23.841059602649004       0.018189270919408265
-4                        -2.8498523081971565      24.503311258278153       0.024662938784541562
-4                        -1.7078700312134965      23.947019867549677       0.033503528957768564
-4                        -0.5724200860850763      23.47549668874165        0.0372364676592925
-4                        2.8498523081971565       24.50331125827815        0.02879938347197243
-4                        4                        25.165562913907284       0.022840181590685033
-4                        -4                       25.165562913907284       0.018405780177578632
-4                        1.6997046163943104       23.84105960264902        0.03647510338403397
-4                        0.5618050468203366       24.34437086092709        0.03378204391333119
-4                        -2.8498523081971543      25.82781456953642        0.026231363828000533
-4                        -4                       26.490066225165563       0.019357118972606224
-4                        -1.7078700312134956      25.271523178807964       0.028253584987058128
-4                        -0.5724200860851684      24.800000000000004       0.03694366460302248
-4                        0.5618050468202612       25.66887417218543        0.03216496721195475
-4                        1.6997046163943106       25.165562913907294       0.030410606290584546
-4                        4                        26.490066225165563       0.017453344006832655
-4                        2.8498523081971543       25.82781456953642        0.02517522332980615
-4                        -0.5724200860851827      26.124503311258284       0.032097050969346945
-4                        -1.7078700312134958      26.596026490066226       0.031430177729408364
-4                        -2.8498523081971534      27.15231788079471        0.026517026656140818
-4                        -4                       27.81456953642384        0.017416739281555165
-4                        -2.84985230819716        28.47682119205298        0.020150250277991066
-4                        -4                       29.139072847682122       0.010503537454279068
-4                        0.5618050468202505       26.99337748344373        0.025676428912670277
-4                        1.6997046163943124       26.490066225165577       0.026485562407002863
-4                        1.699704616394315        27.81456953642385        0.02111348907295692
-4                        0.5618050468202442       28.31788079470201        0.035083693887361905
-4                        2.8498523081971543       27.152317880794712       0.020237299669075032
-4                        4                        27.81456953642384        0.01813044717524943
-4                        4                        29.139072847682122       0.02172400425256943
-4                        2.8498523081971605       28.47682119205298        0.016872489071825852
-4                        2.8498523081971516       29.801324503311267       0.01874486907110506
-4                        4                        30.4635761589404         0.019440615846249888
-4                        -1.7078700312134958      27.920529801324513       0.027769860180806596
-4                        -0.572420086085186       27.44900662251658        0.03399621736347604
-4                        -0.5724200860851862      28.773509933774854       0.029441525692957354
-4                        1.6997046163943077       29.139072847682115       0.021843245890946588
-4                        -1.7078700312134965      29.245033112582796       0.02326162907106406
-4                        -2.849852308197148       29.801324503311257       0.01803864260846758
-4                        -4                       30.4635761589404         0.010722142353253783
-4                        -0.5724200860851865      30.09801324503314        0.027045242576810357
-4                        0.5618050468202433       29.642384105960275       0.02714832779859651
-4                        1.6997046163943068       30.46357615894041        0.016279050991127034
-4                        2.8498523081971543       31.125827814569554       0.02090403131110502
-4                        4                        31.78807947019868        0.012988169633557317
-4                        2.849852308197158        32.45033112582782        0.019663089170451956
-4                        4                        33.11258278145696        0.013752060996289775
-4                        -1.7078700312134947      30.569536423841082       0.027858972919206013
-4                        -2.849852308197157       31.125827814569544       0.019903265097431396
-4                        -4                       31.78807947019868        0.017140205228467747
-4                        0.5618050468202451       30.96688741721858        0.018699149850542725
-4                        -0.5724200860851862      31.422516556291413       0.022598430984396036
-4                        -1.7078700312134956      31.89403973509937        0.018816691907121576
-4                        -2.849852308197157       32.45033112582783        0.018126932012627554
-4                        -4                       33.11258278145696        0.017257994842594788
-4                        4                        34.437086092715234       0.012954908872335427
-4                        2.849852308197155        33.774834437086085       0.016922390818236266
-4                        1.699704616394314        31.78807947019868        0.022319202373130297
-4                        1.699704616394314        33.112582781456965       0.021217892119906837
-4                        0.5618050468202478       32.291390728476834       0.022735796111722235
-4                        -0.572420086085186       32.74701986754969        0.0205818885306845
-4                        -1.7078700312134965      33.21854304635764        0.01676997005900803
-4                        -2.8498523081971543      33.774834437086085       0.01647829557890426
-4                        -4                       34.437086092715234       0.014971984328798878
-4                        -2.849852308197157       35.099337748344375       0.01373184615960825
-4                        -4                       35.76158940397351        0.014404577054813725
-4                        2.8498523081971543       35.099337748344375       0.008899583820563972
-4                        4                        35.76158940397351        0.008641305270417463
-4                        2.8498523081971516       36.42384105960266        0.009389506961763373
-4                        4                        37.08609271523179        0.010247798932754668
-4                        0.5618050468202451       33.6158940397351         0.021155110162621518
-4                        -0.5724200860851871      34.07152317880797        0.016494909547871337
-4                        0.5618050468202433       34.9403973509934         0.01875202847704069
-4                        1.6997046163943095       34.43708609271524        0.015658010471806507
-4                        -1.7078700312134971      34.5430463576159         0.016305012496889076
-4                        -1.7078700312134965      35.86754966887419        0.01615771204791309
-4                        1.6997046163943104       35.76158940397352        0.015819283367177982
-4                        -0.5724200860851871      35.396026490066234       0.011889578727560593
-4                        -2.8498523081971507      36.42384105960266        0.012832081189167122
-4                        -4                       37.08609271523179        0.011866747617799584
-4                        0.561805046820246        36.26490066225168        0.013286820294311457
-4                        1.6997046163943121       37.086092715231814       0.009089076482768804
-4                        2.8498523081971623       37.74834437086094        0.007232230727806992
-4                        4                        38.41059602649007        0.005427331853929296
-4                        -1.7078700312134965      37.19205298013246        0.008662454841103328
-4                        -0.5724200860851862      36.72052980132452        0.010642027786019389
-4                        -2.849852308197163       37.74834437086092        0.00784155161522521
-4                        -4                       38.41059602649007        0.01176693192049656
-4                        -1.7078700312134965      38.51655629139075        0.008349746002658217
-4                        -2.8498523081971507      39.0728476821192         0.01097899950677917
-4                        -4                       39.735099337748345       0.01212453316018818
-4                        0.561805046820246        37.58940397350996        0.01033861752378554
-4                        1.6997046163943121       38.41059602649007        0.0106320998608529
-4                        4                        39.735099337748345       0.0069513228213122225
-4                        2.8498523081971516       39.07284768211922        0.006604042095468547
-4                        0.5618050468202487       38.91390728476824        0.011449330143258886
-4                        -0.5724200860851854      38.045033112582814       0.008257181881688721
-4                        -0.5724200860851847      39.36953642384109        0.011389855312148839
-4                        -1.707870031213495       39.84105960264902        0.012725032895296516
-4                        -2.849852308197157       40.397350993377486       0.009664536300312327
-4.000000000000001        -4.000000000000001       41.05960264900662        0.009932297201001401
-4                        1.6997046163943164       39.73509933774836        0.008134972342038976
-4                        0.5618050468202469       40.23841059602649        0.008855973081203759
-4                        2.8498523081971605       40.397350993377486       0.006639308389227113
-4.000000000000001        4.000000000000001        41.05960264900662        0.008776130982926282
-4                        1.699704616394315        41.05960264900662        0.005358265777517665
-4                        2.8498523081971543       41.721854304635755       0.00977956765364918
-4                        4                        42.384105960264904       0.008836800920962687
-4                        -2.8498523081971574      41.72185430463576        0.008738279070522265
-4                        -0.5724200860851862      40.69403973509935        0.010835585948680943
-4                        -1.7078700312134965      41.16556291390731        0.009866045733475224
-4                        -4                       42.384105960264904       0.007751695388646102