% Model:              Cav_Hex_Unif_flux_v5.1 - Base Case.mph
% Version:            COMSOL 5.5.0.359
% Date:               May 16 2022, 15:15
% Dimension:          3
% Nodes:              4476
% Expressions:        1
% Description:        Surface
% x                       y                        z                        Color
2                         2                        0                        0.16299284729020191
1.6451971183516554        2.400000000000001        0                        0.15448318056420743
2.4000000000000004        2.4000000000000004       0                        0.17477546275696348
2.4000000000000004        1.6451971183516787       0                        0.18066677049034433
2                         -2                       0                        0.17084792426804302
2.4000000000000004        -2.4000000000000004      0                        0.17477546275696348
1.645197118351664         -2.4000000000000004      0                        0.15317400106790066
2.400000000000001         -1.6451971183516554      0                        0.18721266797187852
-2                        -2                       0                        0.16495661653466218
-1.6451971183516727       -2.4                     0                        0.15448318056420743
-2.4000000000000004       -2.4000000000000004      0                        0.1669203857791224
-2.4000000000000004       -1.6451971183516787      0                        0.1701933345198896
-2                        1.3333333333333328       0                        0.1636474370383554
-2.400000000000001        0.8563858430271245       0                        0.1623382575420486
-2.400000000000001        1.6451971183516554       0                        0.1859034884755717
-1.3333333333333328       -2                       0                        0.15186482157159378
-0.8563858430271366       -2.400000000000001       0                        0.1610290780457417
-1.9999999999999996       -1.3333333333333333      0                        0.1610290780457417
1.3333333333333333        -1.9999999999999996      0                        0.14270056509744591
2                         -1.3333333333333328      0                        0.17673923200142383
2.400000000000001         -0.8563858430271245      0                        0.18328512948295805
-2                        2                        0                        0.15906530880128136
-2.4000000000000004       2.4000000000000004       0                        0.15906530880128134
-1.6451971183516787       2.4000000000000004       0                        0.1531740010679006
-1.9999999999999996       0.6666666666666664       0                        0.14400974459375274
-1.3333333333333333       1.9999999999999996       0                        0.1544831805642075
1.3333333333333328        2                        0                        0.15579236006051433
0.8563858430271245        2.400000000000001        0                        0.1688841550235828
1.9999999999999996        1.3333333333333333       0                        0.15448318056420748
-0.8563858430271476       2.4000000000000004       0                        0.1636474370383554
2.4000000000000004        0.8563858430271476       0                        0.16102907804574174
0.8563858430271423        -2.4000000000000004      0                        0.14270056509744591
0.666666666666667         -2                       0                        0.14270056509744586
2.1441182163073336E-15    -2.3999999999999995      0                        0.16201096266797185
-2.4000000000000004       -0.8563858430271476      0                        0.18590348847557173
-2.4                      -1.2378986724570495E-14  0                        0.16888415502358278
-1.9999999999999996       6.938893903907228E-18    0                        0.1433551548455993
-0.6666666666666664       -1.9999999999999996      0                        0.16102907804574174
-0.666666666666667        2                        0                        0.16626579603096908
-1.2378986724570495E-14   2.4                      0                        0.17968488586811426
1.9999999999999996        -6.938893903907228E-18   0                        0.13550007786775825
2.4                       1.2378986724570495E-14   0                        0.15906530880128145
1.9999999999999996        -0.6666666666666664      0                        0.1544831805642075
2                         0.666666666666667        0                        0.1492464625789801
0.6666666666666664        1.9999999999999996       0                        0.1715025140161965
-6.938893903907228E-18    -1.9999999999999996      0                        0.13550007786775825
6.938893903907228E-18     1.9999999999999996       0                        0.1826305397348046
-2                        -0.666666666666667       0                        0.17543005250511698
-2                        -1.5467906581302693      0.48436023573739106      0.01085833389236299
-2                        -2                       0.6993006993006993       0.021317500947269964
-2                        -2                       0                        0.011097279875975408
-1.9999999999999996       -1.3333333333333333      0                        0.010676556663515212
-2                        0.9854950363904202       0.5398456058460233       0.009952947719634527
-1.9999999999999996       0.6666666666666664       0                        0.006109955767723133
-2                        1.3333333333333328       0                        0.010677959003920887
-2                        1.5331042872139844       0.46695214314432804      0.011303035307152848
-2                        2                        0                        0.010689429120925555
-2                        2                        0.6993006993006993       0.012182367722140085
-2                        1.3650501983379588       1.0765628694962448       0.012838961288964043
-2                        -0.9387819134775094      0.655560393584631        0.013396950116783431
-2                        -0.666666666666667       0                        0.017747558238410566
-1.9999999999999996       6.938893903907228E-18    0                        0.012559411008743611
-2                        0.3333333333333335       0.5972399859632106       0.010652579787717414
-2                        -0.2746188433937594      0.6287052323405429       0.016204229516490216
-2                        -1.4618381261501168      1.0669401072700702       0.01474276488137771
-2                        -2                       1.3986013986013985       0.01772202538119876
-2                        0.6814823994572445       1.0983186364723951       0.011141050392869051
-2                        0.931162528193509        1.5500723640754555       0.010203010341418428
-2                        2                        1.3986013986013985       0.010728030082066782
-2                        1.4270887945533661       1.777807580009244        0.012926125029857509
-2                        0.07957332045228059      1.1377343548604368       0.014645841208295202
-2                        -0.4415884032033146      1.0634696305705904       0.015741712099875016
-2                        -0.8925878367072785      1.4155661681446052       0.013806919468701195
-2                        -1.3928683485856417      1.7482517482517392       0.009809806047597278
-2                        -2                       2.0979020979020975       0.015665570417588353
-2                        -1.3928683485856423      2.447552447552442        0.013527222962494707
-2                        -0.8322414176117614      2.127247752162631        0.01252033711103138
-2                        0.4375143654547809       1.6628349329323222       0.008124969407790549
-2                        0.8734516922030853       2.0961543024278666       0.010212972519645877
-2                        2                        2.0979020979020975       0.01620666871503007
-2                        2                        2.797202797202796        0.013613589718123363
-2                        1.3928683485856423       2.447552447552442        0.016409864729517856
-2                        -0.2432586202459959      1.7704364526325622       0.014033953127795014
-2                        0.31765840403057277      2.313218062714456        0.011171059430303658
-2                        -2                       2.797202797202796        0.012575622593936764
-2                        -0.2674700537808149      2.5620368233435995       0.017036837129850286
-2                        -1.3928683485856448      3.1468531468531404       0.014174797608551365
-2                        -2                       3.4965034965034967       0.012828458148731797
-2                        -0.8043952977651958      2.8196428730508485       0.013405396809679051
-2                        0.8349811804106952       2.7580080486931893       0.012558058595695568
-2                        1.392868348585642        3.1468531468531404       0.012747314058360796
-2                        2                        3.4965034965034967       0.014115830760011721
-2                        0.7857366971712838       3.496503496503489        0.012143158904638594
-2                        0.27073186014168504      3.0298378162571975       0.0155430756878664
-2                        -0.27122003005021955     3.276467906589031        0.011806523169747575
-2                        -0.7943106840168576      3.508357084488978        0.012206734647622605
-2                        -1.3928683485856421      3.8461538461538325       0.014051265469672265
-2                        0.2396884944306046       3.761717135288639        0.015526052507684773
-1.9999999999999996       -1.9999999999999996      4.195804195804195        0.01749019907982913
-1.9999999999999996       1.9999999999999996       4.195804195804195        0.011047763517861804
-2                        1.3928683485856421       3.8461538461538325       0.012157386766796625
-2                        0.7857366971712788       4.195804195804182        0.00979125610276164
-2                        1.3928683485856386       4.545454545454541        0.006813390031784952
-1.9999999999999996       1.9999999999999996       4.895104895104893        0.009206107806550956
-2                        -0.7857366971712819      4.195804195804182        0.01170488014076398
-2                        -0.27310714516346263     3.9785851222218556       0.01833775967853205
-2                        -1.3928683485856386      4.545454545454531        0.012281178999862764
-1.9999999999999996       -1.9999999999999996      4.895104895104893        0.013274146207480075
-2                        0.23876993251597203      4.461451690380269        0.015653344188687746
-2                        -0.27362248289541746     4.678460517942923        0.01520051562145829
-2                        -0.7857366971712776      4.895104895104884        0.01032997599711344
-2                        -1.3928683485856421      5.24475524475524         0.011707455923602386
-2                        -2                       5.594405594405594        0.014857507193034913
-2                        0.23861683886353413      5.160824698979444        0.009830961299555031
-2                        1.3928683485856421       5.24475524475524         0.009880084000476274
-2                        0.785736697171282        4.895104895104884        0.006670350859180951
-2                        2                        5.594405594405594        0.01580177903455438
-2                        -1.3928683485856423      5.944055944055942        0.01290777763023447
-2                        -2                       6.2937062937062915       0.013153260070778829
-2                        -0.2745411292459874      5.378992505166885        0.01668156767507938
-2                        -0.7857366971712824      5.594405594405584        0.013590816444971997
-2                        0.7857366971712834       5.5944055944055835       0.007623727534853373
-2                        2                        6.2937062937062915       0.011341260539129277
-2                        1.392868348585642        5.944055944055942        0.016072378621821162
-2                        -0.2785736697171282      6.0839160839160575       0.013574525314127705
-2                        0.23859132325479537      5.8601374498298835       0.012917662774009823
-2                        0.7857366971712838       6.2937062937062915       0.019011662264253385
-2                        2                        6.9930069930069925       0.003943899233032862
-2                        1.39286834858564         6.6433566433566345       0.012751927855262982
-2                        -0.7857366971712844      6.293706293706281        0.009158317001941566
-2                        -1.3928683485856403      6.6433566433566345       0.011886279677295221
-2                        -2                       6.9930069930069925       0.010529559543226005
-2                        0.23858707065333595      6.559440157722218        0.012465009335228682
-2                        -0.2785736697171285      6.7832167832167665       0.00520745279393739
-2                        -1.39286834858564        7.342657342657343        0.007995785127072386
-2                        -0.7857366971712776      6.993006993006973        0.008358629595836806
-2                        -2                       7.692307692307692        0.007482182391598411
-2                        -1.392868348585643       8.041958041958031        0.010183719934808289
-1.9999999999999991       -1.9999999999999991      8.391608391608388        0.00899741289058094
-2                        1.39286834858564         7.342657342657343        0.0051592030710064
-2                        2                        7.692307692307692        0.004317503750498236
-2                        0.785736697171277        6.993006993006973        0.014472258215832923
-2                        0.7857366971712848       7.6923076923076925       0.008370738201742433
-2                        0.23858636188642857      7.258741191788188        0.006270062679888242
-2                        -0.27857366971712816     7.482517482517465        0.0069838973816277366
-2                        -0.7857366971712848      7.6923076923076925       0.01212598475536516
-2                        1.392868348585643        8.041958041958031        0.006407595348479067
-1.9999999999999991       1.9999999999999991       8.391608391608388        0.012066560798073485
-2                        0.238586243758609        7.958041946883093        0.00781569576645555
-2                        0.7857366971712798       8.391608391608374        0.009334536491389867
-2                        1.3928683485856377       8.741258741258735        0.011930700903928447
-2                        -0.7857366971712799      8.391608391608374        0.01340537918601368
-2                        -0.2785736697171277      8.181818181818157        0.01381036911335068
-2                        -1.3928683485856377      8.741258741258735        0.009677612680356678
-2.0000000000000004       2.0000000000000004       9.09090909090909         0.00993785019829678
-2.0000000000000004       -2.0000000000000004      9.09090909090909         0.008087778210642617
-2                        -0.7857366971712776      9.090909090909083        0.010739477431953434
-2                        -1.3928683485856403      9.440559440559444        0.007263216830691682
-2.0000000000000004       -2.0000000000000004      9.79020979020979         0.0010196605236567227
-2                        1.39286834858564         9.440559440559444        0.00964321254411902
-2.0000000000000004       2.0000000000000004       9.79020979020979         0.008443918882858864
-2                        -0.27857366971712955     8.881118881118866        0.012426863854637997
-2                        0.23858622407063823      8.65734265548282         0.01348427302784004
-2                        0.7857366971712771       9.090909090909083        0.011221493611438834
-2                        0.23858622078931105      9.356643356333372        0.012718792800092993
-2                        -0.2785736697171268      9.580419580419564        0.011590951627089459
-2                        -1.3928683485856421      10.139860139860135       0.005723498991178186
-1.9999999999999996       -1.9999999999999996      10.48951048951049        0.0020669909072086727
-2                        -0.7857366971712826      9.790209790209781        0.014094231489753833
-2                        0.7857366971712825       9.790209790209781        0.01355554964137933
-1.9999999999999996       1.9999999999999996       10.48951048951049        0.010049437539112934
-2                        1.3928683485856421       10.139860139860135       0.014064201819138195
-2                        -0.2785736697171276      10.279720279720255       0.010742572696413441
-2                        0.23858622024242493      10.055944055892374       0.00847074888619945
-2                        1.3928683485856421       10.839160839160833       0.010571500758432587
-2                        2                        11.188811188811187       0.00549339107028094
-2                        0.7857366971712839       10.489510489510485       0.011086457047489813
-2                        -1.3928683485856417      10.839160839160833       0.009684421972275486
-2                        -2                       11.188811188811187       0.007338915236015853
-2                        -0.7857366971712835      10.48951048951048        0.011195568354452755
-2                        -0.2785736697171285      10.979020979020959       0.006933513870148244
-2                        -0.7857366971712815      11.188811188811181       0.012272975199798903
-2                        -1.3928683485856412      11.538461538461533       0.013245212556226476
-2                        -2                       11.888111888111883       0.005009778845979137
-2                        2                        11.888111888111883       0.0029804064862034574
-2                        1.3928683485856421       11.538461538461533       0.004541501354656038
-2                        0.7857366971712834       11.188811188811176       0.008402840195166269
-2                        0.2385862201512765       10.755244755236127       0.005711905742381669
-2                        0.23858622013608421      11.454545454544009       0.009496055357733004
-2                        -0.27857366971712816     11.678321678321668       0.010288892763324715
-2                        -0.7857366971712808      11.888111888111885       0.014160655124708108
-2                        -1.3928683485856395      12.237762237762235       0.01115160516351666
-2                        -2                       12.587412587412583       0.004501703423383089
-2                        2                        12.587412587412583       0.003332302510381574
-2                        1.3928683485856401       12.237762237762235       0.004456834921353942
-2                        0.7857366971712798       11.88811188811188        0.008336922404145288
-2                        0.23858622013355246      12.153846153845894       0.011986402989437863
-2                        -0.2785736697171277      12.37762237762236        0.012321322317654692
-2                        -1.3928683485856395      12.937062937062926       0.008950135536584995
-2                        0.7857366971712834       12.587412587412578       0.009163078299948188
-2                        1.39286834858564         12.937062937062926       0.004638817346730725
-2                        -2                       13.286713286713281       0.006775678415985948
-2                        2                        13.286713286713281       0.004244942036369974
-2                        1.3928683485856423       13.636363636363631       0.007655929920675504
-2                        2                        13.986013986013985       0.010885203510529302
-2                        0.23858622013313058      12.853146853146797       0.011667827906557052
-2                        0.7857366971712811       13.286713286713276       0.007757549401909717
-2                        -0.7857366971712811      12.587412587412572       0.010800286344865686
-2                        -0.2785736697171277      13.076923076923064       0.009470464915772811
-2                        -0.7857366971712808      13.286713286713276       0.009020409526141483
-2                        -1.3928683485856417      13.636363636363631       0.011221086047430833
-2                        -2                       13.986013986013985       0.009538332825194
-2                        0.23858622013306174      13.552447552447527       0.0062591524267160345
-2                        0.7857366971712842       13.986013986013972       0.005547173523754924
-2                        1.3928683485856435       14.335664335664323       0.008345334383100476
-2                        2                        14.68531468531468        0.006826656439737105
-2                        1.3928683485856403       15.034965034965026       0.004083841128326442
-2                        2                        15.38461538461538        0.0015765470921764028
-2                        -0.7857366971712842      13.986013986013967       0.010451577517530163
-2                        -0.2785736697171276      13.77622377622375        0.007749372515304269
-2                        -1.392868348585643       14.335664335664323       0.007587821265413421
-2                        -2                       14.68531468531468        0.008186741450999707
-2                        -1.3928683485856386      15.034965034965019       0.0069286400899343905
-2                        -2                       15.38461538461538        0.010932351513443074
-2                        0.23858622013304842      14.251748251748232       0.0035589823950714656
-2                        -0.2785736697171294      14.475524475524448       0.004500013865381833
-2                        -0.7857366971712826      14.68531468531466        0.006146918410972865
-2                        0.785736697171282        14.68531468531466        0.00683985288801179
-2                        0.785736697171278        15.384615384615374       0.008780451838975464
-2                        -0.7857366971712758      15.384615384615374       0.004265684929731953
-2                        -1.3928683485856386      15.73426573426573        0.004386284661541458
-2                        -2                       16.08391608391608        0.005594400911028701
-2                        2                        16.08391608391608        0.004207984680615927
-2                        1.3928683485856386       15.73426573426573        0.003479565056610081
-2                        1.3928683485856403       16.433566433566433       0.004075971137830729
-2                        0.7857366971712793       16.083916083916076       0.007674252828511007
-2                        0.23858622013304487      14.951048951048923       0.004291842763750835
-2                        0.23858622013304487      15.650349650349636       0.005009285245040161
-2                        -0.27857366971712955     15.174825174825152       0.001639501662721079
-2                        -0.2785736697171267      15.87412587412586        0.004911750554983831
-2                        -0.7857366971712809      16.08391608391607        0.004814275659073193
-2                        -1.3928683485856395      16.433566433566426       0.0037753429415002225
-2                        -2                       16.783216783216776       0.004392722319601117
-2                        2                        16.783216783216776       0.005384833635012297
-2                        -0.7857366971712809      16.783216783216776       0.0036929226147456445
-2                        -1.3928683485856417      17.13286713286713        0.0031883042800634528
-2                        -2                       17.482517482517476       0.0030691648887850535
-2                        2                        17.482517482517476       0.005290584734653117
-2                        1.3928683485856421       17.13286713286713        0.0033608656611581675
-2                        -0.2785736697171268      16.57342657342656        0.0028445737907486905
-2                        0.23858622013304667      16.349650349650336       0.00392935213060927
-2                        0.7857366971712829       16.783216783216776       0.004356017779480612
-2                        0.2385862201330471       17.048951048951032       0.0021957942032928986
-2                        -0.2785736697171277      17.272727272727256       0.002773726751418316
-2                        -1.392868348585643       17.832167832167823       0.002919533099945021
-2                        -2                       18.181818181818173       0.003029863096436216
-2                        -0.7857366971712842      17.48251748251747        0.002991913486095567
-2                        0.7857366971712825       17.48251748251747        0.0021105508261050096
-2                        2                        18.181818181818173       0.0014824001856406446
-2                        1.392868348585643        17.832167832167826       0.0034367838089853137
-2                        1.39286834858564         18.531468531468526       0.002798027080319071
-2                        -1.39286834858564        18.53146853146852        0.003499230515356682
-2                        2                        18.881118881118876       0.002660517340477202
-2                        -2                       18.881118881118876       0.0017284078774140335
-2                        0.2385862201330462       17.748251748251732       0.0022441395098019073
-2                        0.7857366971712834       18.181818181818166       0.002904005958862421
-2                        -0.27857366971712905     17.972027972027956       8.807726755480889E-4
-2                        -0.7857366971712834      18.18181818181816        0.002865706971843673
-2                        -0.7857366971712794      18.881118881118866       0.003439461824152057
-2                        -0.2785736697171294      18.671328671328652       9.014006560481534E-4
-2                        0.23858622013304528      18.44755244755242        0.0028970482838511762
-2                        0.7857366971712811       18.881118881118873       0.0046126239140282495
-2                        1.392868348585639        19.23076923076922        0.0033014688675189244
-2                        2                        19.580419580419576       0.0039409092859085
-2                        -1.3928683485856386      19.23076923076922        0.0015266654122380457
-2                        -2                       19.580419580419576       0.0028829483088778224
-2                        1.3928683485856417       19.930069930069926       0.0027771456728456993
-2                        2                        20.279720279720273       0.00551443569861669
-2                        -0.7857366971712798      19.580419580419573       0.0029019525488522204
-2                        -0.2785736697171276      19.370629370629356       0.0015483943517184224
-2                        0.2385862201330453       19.146853146853125       0.0034475705017650883
-2                        0.7857366971712789       19.580419580419573       0.0033546327474345845
-2                        0.23858622013304487      19.846153846153825       0.0027036947308799607
-2                        -1.3928683485856412      19.930069930069923       0.0027710128326688655
-2                        -2                       20.279720279720273       0.004203778036120973
-2                        -1.3928683485856386      20.629370629370626       0.0021105430187082553
-2                        -0.7857366971712799      20.279720279720266       0.004596748665658305
-2                        -0.2785736697171277      20.069930069930063       0.002764474023940568
-2                        0.7857366971712808       20.27972027972026        0.004675240039937459
-2                        2                        20.979020979020977       0.0042091459459729684
-2                        1.3928683485856386       20.629370629370626       0.004219120487088856
-2                        1.3928683485856421       21.328671328671323       0.0022625386497006315
-2                        -2                       20.979020979020977       0.0017426622013447558
-2                        -0.7857366971712799      20.97902097902098        0.003294781576549239
-2                        2                        21.678321678321677       0.0043624520035967255
-2                        -0.2785736697171277      20.769230769230752       0.004144419888788234
-2                        0.23858622013304576      20.54545454545453        0.0027769958296491597
-2                        -1.3928683485856412      21.328671328671323       0.002124617438143106
-2                        -2                       21.678321678321677       1.8488525241876986E-4
-2                        0.785736697171282        20.97902097902097        0.0027273046050304128
-2                        0.2385862201330462       21.244755244755233       9.376562456220829E-4
-2                        0.7857366971712816       21.678321678321673       8.136828518091542E-4
-2                        1.3928683485856403       22.02797202797202        0.0028292883460943065