% Model:              Cav_Hex_Unif_flux_v5.1 - Base Case.mph
% Version:            COMSOL 5.5.0.359
% Date:               May 16 2022, 15:15
% Dimension:          3
% Nodes:              2453
% Expressions:        1
% Description:        Surface
% x                       y                        z                        Color
0.9000000000000004        -0.5893296300533294      0                        0.024874410429830036
0.9000000000000002        -0.9000000000000002      0                        0.033384077155824525
0.6758991604291763        -0.6818947890086712      0                        0.0327294874076711
0.589329630053329         -0.9000000000000002      0                        0.027492769422443723
0.6937841581024305        0.7221794273696616       0                        0.029849292515796037
0.9000000000000002        0.9000000000000002       0                        0.03534784640028478
0.9000000000000002        0.589329630053329        0                        0.023565230933523182
0.589329630053331         0.9000000000000001       0                        0.037966205392898474
0.6429787372946103        0.5668337503964518       0                        0.023565230933523185
0.6871830740220647        -0.42942039362872        0                        0.020292282192756073
0.9000000000000002        -0.2923547744504526      0                        0.02618358992613688
0.5                       -0.5                     0                        0.028474654044673847
0.6969657101081116        0.3876445799798537       0                        0.02945653866690398
0.9000000000000002        0.29235477445045255      0                        0.03403866690397792
0.5                       0.5                      0                        0.01767392320014239
0.6836792529949159        0.09923472482597129      0                        0.03310353869233019
0.9000000000000002        -2.3245294578089215E-16  0                        0.034038666903977936
0.6945998561946013        -0.17331312739205074     0                        0.02945653866690398
0.3923107138266483        -0.7013359050164196      0                        0.032074897659517675
0.29235477445045255       -0.9000000000000002      0                        0.03403866690397794
0.4597144096173516        0.6875023040137753       0                        0.026931692495455073
0.292354774450452         0.9000000000000001       0                        0.03665702589659163
0.5                       -0.29999999999999993     0                        0.024874410429830022
0.3                       -0.5000000000000001      0                        0.030111128415057406
0.29999999999999993       0.5                      0                        0.03142030791136425
0.5                       -0.09999999999999996     0                        0.023565230933523182
0.5000000000000001        0.09999999999999994      0                        0.021601461689062927
0.5000000000000001        0.3                      0                        0.03665702589659163
0.10000898552300573       -0.6845725445214315      0                        0.03254246176534154
-2.3245294578089215E-16   -0.9000000000000002      0                        0.03534784640028478
0.16768209247720045       0.6945441599626757       0                        0.034038666903977936
-3.365363543395006E-16    0.9000000000000001       0                        0.03534784640028479
0.09999999999999994       -0.5000000000000001      0                        0.03142030791136424
0.09999999999999996       0.5                      0                        0.03534784640028477
-0.1733535788632017       -0.6969593991919008      0                        0.022910641185369767
-0.2923547744504526       -0.9000000000000002      0                        0.02487441042983003
-0.09999999999999996      -0.5                     0                        0.026183589926136872
-0.4174703328164362       -0.6911283763392955      0                        0.028147359170597144
-0.5893296300533294       -0.9000000000000004      0                        0.037966205392898474
-0.29999999999999993      -0.5                     0                        0.02618358992613688
-0.10668630969886467      0.6790653003497988       0                        0.02637061556846642
-0.2923547744504523       0.9000000000000002       0                        0.0327294874076711
-0.09999999999999994      0.5000000000000001       0                        0.02160146168906291
-0.6807002337862077       -0.6803399008622184      0                        0.04058456438551216
-0.9000000000000002       -0.9000000000000002      0                        0.04320292337812584
-0.9000000000000002       -0.5893296300533319      0                        0.04320292337812585
-0.5                      -0.5                     0                        0.03142030791136425
-0.3902264008543796       0.6980992942694024       0                        0.025529000177983454
-0.5893296300533308       0.9000000000000004       0                        0.026183589926136883
-0.9000000000000001       0.5893296300533301       0                        0.03534784640028479
-0.9000000000000002       0.9000000000000002       0                        0.025529000177983468
-0.675539068992048        0.6848230808494363       0                        0.02880194891875056
-0.3                      0.5000000000000001       0                        0.020946871940909495
-0.7056647616171544       -0.4012391688479755      0                        0.03796620539289847
-0.9000000000000002       -0.2923547744504521      0                        0.037966205392898474
-0.5000000000000001       -0.3                     0                        0.027492769422443705
-0.6935814078214282       0.4176015287053222       0                        0.034693256652131355
-0.9000000000000002       0.2923547744504526       0                        0.02880194891875056
-0.5                      0.5                      0                        0.036329731022514904
-0.681626811212718        -0.100781543403762       0                        0.03534784640028478
-0.9000000000000002       4.683753385137379E-16    0                        0.037966205392898474
-0.696451866858304        0.1697357326540282       0                        0.03207489765951767
-0.5000000000000001       -0.09999999999999994     0                        0.02356523093352318
-0.5                      0.29999999999999993      0                        0.039275384889205296
-0.5                      0.09999999999999996      0                        0.03142030791136424
-0.5000000000000001       -0.3                     25.000000000000004       0
-0.5                      -0.3059293051210753      24.871113759064436       6.611356456352345E-197
-0.5000000000000001       -0.09999999999999994     25.000000000000004       0
-0.5                      -0.5                     25                       9.818846222305477E-199
-0.5                      0.09999999999999996      25                       0
-0.5                      0.0012474629403731452    24.824478615266376       6.545897481536885E-188
-0.5                      -0.15247293615605728     24.80153289283518        7.855076977844262E-188
-0.5                      -0.07376939027217244     24.658634479534943       6.545897481536885E-188
-0.5                      0.29999999999999993      25                       0
-0.5                      0.3040220343766734       24.871348772487053       0
-0.5                      0.5                      25                       0
-0.5                      0.15346998629840036      24.803901844764784       0
-0.5                      0.08319120199263164      24.686534954738836       0
-0.5                      -0.5                     24.77064220183486        6.611356456352345E-197
-0.5                      -0.283114873984196       24.65511266611272        5.610769269887919E-128
-0.5                      0.5                      24.77064220183486        0
-0.5                      0.27066221996164047      24.653548588322643       0
-0.5                      0.5                      24.541284403669728       6.545897481536927E-195
-0.5                      0.06434573103491703      24.492111245805432       5.61076926988821E-152
-0.5                      -0.1425296649837543      24.51419726241842        7.855076977842355E-78
-0.5                      -0.3071028528123615      24.42838417652497        6.545897481535296E-78
-0.5                      -0.5                     24.541284403669728       6.545897481535905E-128
-0.5                      -0.5                     24.31192660550459        6.545897481536839E-190
-0.5                      -0.11300702634461765     24.336745133343392       6.545897481535296E-78
-0.5                      -0.30396555156160077     24.21103898810095        6.545897481535552E-101
-0.5                      0.5                      24.31192660550459        7.265946204503846E-64
-0.5                      0.2886176771805674       24.411539039725046       6.545897481536245E-152
-0.5                      -0.10379158765201787     24.12406149031004        6.545897481535552E-101
-0.5                      0.08845885869414172      24.26570758672937        6.545897481536245E-152
-0.5                      0.29647374785642233      24.18224435843907        6.545897481535008E-65
-0.5                      0.09811461008957889      24.047544252753248       6.545897481536565E-173
-0.5                      0.5                      24.082568807339452       7.265946204503846E-64
-0.5                      -0.5                     24.082568807339452       6.54590402743437E-192
-0.5                      -0.1003613062873503      23.898497762368613       6.545897481536875E-194
-0.5                      -0.300522748359758       23.985536698837844       6.5458975476503E-184
-0.5                      -0.5                     23.853211009174313       6.545897481537039E-156
-0.5                      -0.3001614484438031      23.75676337938257        6.545897481536385E-156
-0.5                      -0.10006021771455875     23.66962730290241        6.611356456350379E-60
-0.5                      -0.30010126895762        23.52750108258405        6.5458974815350375E-62
-0.5                      0.09982159268566172      23.819733686342378       6.545897481535029E-60
-0.5                      0.5                      23.853211009174313       6.545897481535591E-99
-0.5                      0.30044589770329         23.967889908256883       6.545897481535812E-122
-0.5                      0.10016630749956734      23.590731227876073       6.545897481535029E-60
-0.5                      0.30044589770329         23.738532110091743       6.545897481535812E-122
-0.5                      -0.3000914620421111      23.29814773080317        6.611356456351979E-174
-0.5                      -0.1000100362857603      23.440350727853758       6.5458974815350375E-62
-0.5                      -0.10000167271429358     23.211006466874704       6.545897481537237E-220
-0.5                      0.10023379625431172      23.36144889761737        6.545897481535245E-77
-0.5                      0.30044589770329105      23.5091743119266         6.545897481535869E-126
-0.5                      0.10024671709439581      23.132106384873858       6.545897481535245E-77
-0.5                      0.30044589770329155      23.279816513761464       6.545897481535245E-77
-0.5                      0.5                      23.394495412844034       7.200487229689321E-110
-0.5                      0.5                      23.62385321100917        7.200493775587264E-147
-0.5                      -0.5                     23.394495412844034       7.201214478900333E-170
-0.5                      -0.5                     23.62385321100917        6.545897481535865E-119
-0.5                      -0.5                     23.165137614678898       6.545897481537137E-217
-0.5                      -0.10000027878571593     22.98165092490725        6.545897481536494E-166
-0.5                      0.10024914935345874      22.90275158551853        6.545897481536961E-200
-0.5                      -0.3000911655493217      23.068721850641044       6.545897481535921E-125
-0.5                      -0.30009914409262983     22.838939767110205       6.545897481535921E-125
-0.5                      -0.10000004646428609     22.75229350277506        6.545897481535927E-128
-0.5                      0.5                      23.165137614678898       7.200487229689321E-110
-0.5                      0.30044589770329105      23.050458715596328       6.545897481535944E-124
-0.5                      0.10026391328724926      22.674130571488977       6.545897481535933E-128
-0.5                      0.5                      22.935779816513758       6.545897481535829E-116
-0.5                      0.300445897703292        22.821100917431192       6.545904027433693E-143
-0.5                      0.30044589770329105      22.591743119266056       6.545897481535389E-92
-0.5                      -0.5                     22.935779816513758       6.545897481535921E-125
-0.5                      0.5                      22.706422018348622       6.545897481535389E-92
-0.5                      -0.5                     22.706422018348622       6.545897481535138E-74
-0.5                      -0.3001971051495852      22.61740289059992        6.545897481535137E-75
-0.5                      -0.09991413518608372     22.527353022046245       6.545897481535691E-107
-0.5                      -0.30004954724265587     22.382772675995614       6.545962940509952E-75
-0.5                      0.10027371295425214      22.445272701603297       6.545897488082471E-172
-0.5                      0.30044589770329044      22.36238532110092        6.545897481534968E-55
-0.5                      -0.0998868769710606      22.299396869293037       6.5458974815352664E-80
-0.5                      0.10028758118882641      22.21662730642456        6.545897481541954E-93
-0.5000000000000001       0.5000000000000001       22.47706422018349        6.545897481534968E-55
-0.5                      0.30044589770329105      22.13302752293578        6.545897481541954E-93
-0.5                      0.10028623318083252      21.987200135729235       6.545897481535508E-91
-0.5                      0.30044589770329         21.90366972477064        6.611356456351706E-160
-0.5000000000000001       -0.5000000000000001      22.47706422018349        7.200487229688652E-74
-0.5000000000000001       0.5000000000000001       22.24770642201835        6.545897481534968E-55
-0.5                      0.5                      22.018348623853214       6.545962940512209E-228
-0.5000000000000001       -0.5000000000000001      22.24770642201835        6.545897481535769E-112
-0.5                      -0.0999223810972183      22.068212707591602       6.545897481535443E-91
-0.5                      -0.30013433733706174     22.160278422192444       6.5458974815352664E-80
-0.5                      -0.5                     22.018348623853214       6.545898136125051E-79
-0.5                      -0.09989981072080546     21.840015856703836       6.545897481535118E-68
-0.5                      -0.3000990884621637      21.921508664492528       6.545897481535118E-68
-0.5                      -0.3000908310345468      21.692575603092205       6.545897481535118E-68
-0.5                      0.10029107759193989      21.758091516552835       6.55244337901788E-160
-0.5                      -0.30008945479080174     21.463288594397277       6.55244337902486E-183
-0.5                      -0.09989444337170858     21.610934137470057       6.545897481535768E-112
-0.5                      0.30044589770329044      21.6743119266055         6.545897482190345E-111
-0.5                      0.10029220611796252      21.52879176576322        6.545897481535201E-75
-0.4999999999999999       0.4999999999999999       21.55963302752293        6.545897481535344E-82
-0.5                      0.5                      21.78899082568807        6.545897481535344E-82
-0.4999999999999999       -0.4999999999999999      21.55963302752293        7.2004872296903E-174
-0.5                      -0.5                     21.78899082568807        6.545897481535406E-86
-0.5                      -0.5                     21.33027522935779        6.545897481536474E-162
-0.5                      -0.09989328120911356     21.38163611708172        6.545897481535234E-77
-0.5                      -0.3000892254158758      21.23394259447874        6.545897481535106E-68
-0.5                      0.30044589770329044      21.444954128440365       6.545897481535201E-75
-0.5                      0.5                      21.33027522935779        6.545962940510448E-102
-0.5                      0.10029244772655443      21.29944639508505        6.612011046098642E-73
-0.5                      0.300445897703292        21.215596330275222       6.545897481535199E-71
-0.5                      0.10029249691484443      21.07009112698853        6.61135645635055E-71
-0.5                      -0.09989304291442402     21.152290575983283       6.545962947055819E-68
-0.5                      -0.3000891871865602      21.004586762688298       6.545897481535106E-68
-0.5                      0.30044589770329105      20.98623853211009        6.545897481535199E-71
-0.5                      0.10029250659959767      20.84073382697164        6.545897481534733E-40
-0.5                      -0.09989299576512357     20.922935203013296       6.545897481534733E-40
-0.5                      0.300445897703292        20.756880733944957       6.5459046886339795E-80
-0.5000000000000001       0.5000000000000001       21.10091743119266        6.54589748808103E-70
-0.5000000000000001       -0.5000000000000001      21.10091743119266        7.265946204504564E-110
-0.5                      0.5                      20.87155963302752        7.200487957009956E-79
-0.5                      -0.5                     20.87155963302752        7.265946276509437E-110
-0.5                      -0.30008918081498037     20.775229292252316       6.545897488081555E-109
-0.5                      -0.5                     20.642201834862387       7.200487229689447E-118
-0.5                      -0.30008917975304605     20.545871548708718       6.545897481535065E-66
-0.5                      0.5                      20.642201834862387       6.545904754754745E-80
-0.5                      0.10029250846150828      20.611376124576235       6.545897481536494E-165
-0.5                      -0.09989298666798174     20.693577872772476       6.545897481534733E-40
-0.5                      0.30044589770329044      20.527522935779814       6.545897481542063E-94
-0.5                      0.10029250881312424      20.382018344496892       6.54589748153588E-127
-0.5                      -0.09989298494530308     20.464220163215582       6.54589748153622E-151
-0.5                      0.5                      20.412844036697248       6.545897482190403E-115
-0.5                      0.30044589770329155      20.29816513761468        6.545897481535224E-73
-0.5                      -0.5                     20.412844036697248       6.545897481535065E-66
-0.5                      -0.09989298462377531     20.23486238158863        6.545897481534641E-36
-0.5000000000000001       -0.5000000000000001      20.18348623853211        6.54655207783571E-65
-0.5                      -0.30008917957605596     20.31651375964717        1.3091794963135618E-65
-0.5                      -0.30008917954655795     20.087155962999294       6.545897481600555E-66
-0.5                      -0.09989298456445161     20.005504586474878       6.545897481534641E-36
-0.5000000000000001       0.5000000000000001       20.18348623853211        6.54589748153505E-68
-0.5                      0.10029250887860963      20.152660549700084       6.545897481534641E-36
-0.4999999999999999       0.4999999999999999       19.95412844036697        6.54589748153505E-68
-0.5                      0.30044589770328956      20.068807339449542       6.545897482189814E-73
-0.5                      0.5                      19.724770642201833       7.200487229689131E-98
-0.5                      0.30044589770329155      19.839449541284402       6.545897481536026E-83
-0.5                      0.30044589770329155      19.610091743119266       6.545897481535841E-124
-0.5                      0.1002925088906711       19.923302752155337       6.545897481535808E-70
-0.5                      0.10029250889287278      19.69394495410343        6.545897481535672E-108
-0.5                      -0.3000891795416416      19.857798165087036       6.545897481534595E-30
-0.5                      -0.09989298455360826     19.776146788867475       6.545897481534595E-30
-0.5                      -0.30008917954082187     19.628440366964046       6.545897481534595E-30
-0.5                      0.10029250889327135      19.464587155958803       6.545897481534591E-28
-0.5                      -0.09989298455164167     19.546788990803492       6.545897481600951E-97
-0.5                      -0.5                     19.724770642201833       6.545897481536411E-118
-0.4999999999999999       -0.4999999999999999      19.95412844036697        6.545897481535135E-74
-0.5                      0.5                      19.4954128440367         6.545897481535655E-104
-0.5                      0.3004458977032898       19.380733944954127       6.545897481534282E-13
-0.5                      0.10029250889334307      19.23522935779736        6.545897481534289E-13
-0.5                      0.5                      19.266055045871553       6.6114219153256525E-99
-0.5                      0.5                      19.03669724770642        6.545898136125236E-87
-0.5                      0.3004458977032912       19.151376146788984       6.545897481534282E-13
-0.5                      -0.5                     19.4954128440367         6.54589748880227E-105
-0.5                      -0.3000891795406855      19.39908256880593        6.5458974815353E-79
-0.5                      0.30044589770329067      18.922018348623848       6.545897481534682E-34
-0.5                      -0.09989298455128748     19.317431192656574       6.545897481534591E-28
-0.5                      -0.3000891795406627      19.169724770641963       6.5458974815353E-79
-0.5                      0.10029250889335595      19.00587155963288        6.545897481534436E-17
-0.5                      -0.09989298455122397     19.0880733944947         6.545897481534436E-17
-0.5                      -0.3000891795406587      18.94036697247702        6.545904027498704E-112
-0.5                      -0.5                     19.03669724770642        6.545897481536074E-134
-0.5                      -0.5                     19.266055045871553       6.5458974815353E-79
-0.5                      0.30044589770329155      18.463302752293572       6.54589748153426E-11
-0.5                      0.3004458977032902       18.69266055045871        6.6113564563498014E-18
-0.5                      0.10029250889335872      18.547155963302743       6.545897481534485E-19
-0.5                      0.5                      18.80733944954128        7.265946204503249E-18
-0.5                      0.5                      18.57798165137614        1.3091796285339813E-10
-0.5                      0.5                      18.348623853211006       1.309179496306852E-10
-0.5                      0.10029250889335817      18.77651376146786        6.545897481534485E-19
-0.5                      -0.5                     18.80733944954128        0.0013091794963068521
-0.5                      -0.09989298455121265     18.858715596330143       6.545897481534436E-17
-0.5                      -0.3000891795406584      18.711009174311915       6.545897481534261E-4
-0.5                      -0.09989298455121066     18.62935779816511        6.545897481534485E-19
-0.5                      -0.0998929845512102      18.399999999999988       6.545897481535454E-91
-0.5                      -0.3000891795406583      18.481651376146786       6.545897481534987E-63
-0.5                      -0.5                     18.57798165137614        0.0013091794963068521
-0.5                      -0.5                     18.348623853211006       1.309179496306861E-6
-0.5                      -0.30008917954065817     18.25229357798165        6.545897481534305E-7
-0.5                      0.10029250889335896      18.31779816513761        6.54589748153569E-113
-0.5                      -0.0998929845512102      18.17064220183486        6.545897481534234E-9
-0.5                      0.3004458977032912       18.23394495412844        6.545897481535043E-60
-0.5                      -0.0998929845512102      17.941284403669723       6.5458974816003474E-9
-0.5                      0.10029250889335883      18.08844036697247        6.545897481535381E-91
-0.5                      0.10029250889335896      17.859082568807338       6.55244337908243E-88
-0.5                      0.30044589770329044      18.004587155963296       6.545897481534398E-21
-0.5                      0.3004458977032918       17.77522935779816        7.200487236241415E-87
-0.5                      0.10029250889335896      17.6297247706422         6.545897481535138E-67
-0.5                      0.5                      18.11926605504587        6.545897481534398E-21
-0.5                      0.5                      17.88990825688073        1.3091794963068796E-20
-0.5                      -0.5                     18.11926605504587        1.309179496306861E-6
-0.5                      -0.3000891795406583      18.022935779816507       6.545897481599692E-9
-0.5                      -0.5                     17.88990825688073        6.545897481535505E-46
-0.5                      -0.30008917954065817     17.793577981651374       6.61135645634973E-20
-0.5                      -0.5                     17.660550458715594       6.611356456350179E-44
-0.5                      -0.30008917954065806     17.56422018348624        6.545897481534553E-25
-0.5                      -0.0998929845512101      17.711926605504583       6.545897481534511E-22
-0.5                      -0.09989298455121003     17.482568807339447       6.545897481534553E-25
-0.4999999999999999       -0.4999999999999999      17.431192660550455       6.54589748153512E-61
-0.5                      -0.30008917954065795     17.3348623853211         6.611356456349771E-23
-0.4999999999999999       -0.4999999999999999      17.20183486238532        6.545897481534442E-24
-0.5                      0.5                      17.660550458715594       1.309180805486586E-95
-0.5                      -0.09989298455121003     17.253211009174308       6.545897481540972E-23
-0.5                      0.3004458977032902       17.545871559633024       6.545897481534649E-32
-0.5                      0.10029250889335896      17.40036697247706        6.545897481535138E-67
-0.5                      -0.0998929845512102      17.023853211009172       6.545897481534692E-35
-0.5                      0.10029250889335883      17.171009174311923       6.545897481534692E-35
-0.5                      0.30044589770329155      17.316513761467885       6.545897481534649E-32
-0.5                      0.30044589770329044      17.08715596330275        6.54589748153468E-34
-0.5                      0.10029250889335861      16.941651376146783       6.611356456350463E-65
-0.4999999999999999       0.4999999999999999       17.431192660550455       6.5458975469935134E-24
-0.4999999999999999       0.4999999999999999       16.972477064220183       6.545897481534426E-16
-0.4999999999999999       0.4999999999999999       17.20183486238532        6.545897481534538E-24
-0.5                      0.30044589770329044      16.85779816513761        6.545897481534426E-16
-0.5                      -0.30008917954065795     17.10550458715596        6.545897481534426E-23
-0.4999999999999999       -0.4999999999999999      16.972477064220183       6.545904755336141E-47
-0.5                      -0.30008917954065817     16.87614678899082        6.545897482189588E-57
-0.5                      -0.0998929845512102      16.79449541284403        6.545897481534592E-28
-0.4999999999999999       -0.4999999999999999      16.74311926605504        6.545897481534835E-45
-0.5                      -0.30008917954065817     16.646788990825684       6.545898797260642E-75
-0.5                      0.10029250889335883      16.712293577981647       6.545897481534592E-28
-0.5                      -0.0998929845512102      16.565137614678893       6.545897481534592E-28
-0.4999999999999999       -0.4999999999999999      16.513761467889903       6.545897481534835E-45
-0.4999999999999999       0.4999999999999999       16.74311926605504        6.545897546993401E-16
-0.5                      0.3004458977032912       16.628440366972473       6.54589748153454E-24
-0.4999999999999999       0.4999999999999999       16.513761467889903       6.545969486406837E-24
-0.5                      0.10029250889335872      16.48293577981651        6.545904027432699E-68
-0.5                      -0.30008917954065795     16.41743119266054        6.545897481534747E-46
-0.4999999999999998       -0.4999999999999998      16.284403669724764       6.545897481535263E-83
-0.5                      -0.3000891795406584      16.188073394495405       6.545897481534574E-30
-0.4999999999999999       -0.4999999999999999      16.055045871559624       7.200487229688033E-30
-0.4999999999999998       0.4999999999999998       16.284403669724764       7.208342306665766E-26
-0.5                      0.30044589770329055      16.399082568807334       6.545897481534523E-30