% Model:              Cav_Hex_Unif_flux_v5.1 - Base Case.mph
% Version:            COMSOL 5.5.0.359
% Date:               May 16 2022, 15:15
% Dimension:          3
% Nodes:              5541
% Expressions:        1
% Description:        Surface
% x                       y                        z                        Color
8                         8                        0                        0.024110722390317724
8.4                       8.4                      0                        0.022692444602651976
8.4                       5.824142950696388        0                        0.028692850627391693
-8                        8                        0                        0.026729081382931414
-8.400000000000004        5.8241429506963875       0                        0.03032932499777525
-8.4                      8.4                      0                        0.025747196760701283
-5.824142950696377        8.4                      0                        0.03240219253359443
8                         -8                       0                        0.024438017264394436
8.4                       -5.824142950696381       0                        0.027601867713802665
8.4                       -8.4                     0                        0.022910641185369784
5.824142950696385         -8.4                     0                        0.03294768399038894
5.824142950696385         8.4                      0                        0.031856701076799915
-8                        -8                       0                        0.024328918973035536
-8.4                      -8.4                     0                        0.024001624098958826
-8.4                      -5.824142950696387       0                        0.029238342084186214
-8                        -5.714285714285714       0                        0.02902014550146839
8                         -5.714285714285713       0                        0.0264017865088547
-5.714285714285714        8                        0                        0.029674735249621817
-8                        5.714285714285713        0                        0.029674735249621803
8                         5.714285714285714        0                        0.029674735249621803
7.999999999999998         -3.4285714285714284      0                        0.03302041618462825
8.4                       -3.009049604034738       0                        0.043639316543561575
7.999999999999998         3.428571428571428        0                        0.03462052445789216
8.4                       3.0090496040347148       0                        0.04102095755094789
7.999999999999998         1.1428571428571432       0                        0.039566313666162506
8.4                       -1.9567680809018384E-14  0                        0.04727592625552504
5.714285714285713         8                        0                        0.026401786508854705
3.4285714285714284        7.999999999999998        0                        0.041166421939426406
3.0090496040347188        8.400000000000002        0                        0.0478577838094392
1.142857142857142         7.999999999999998        0                        0.048439641363353325
5.551115123125783E-17     8.4                      0                        0.05178532229835967
-1.1428571428571426       8.000000000000002        0                        0.049021498917267446
-7.999999999999998        3.4285714285714284       0                        0.03636609711963463
-8.4                      3.0090496040347356       0                        0.04305745898964743
-3.0090496040347183       8.4                      0                        0.04640313992465377
-3.428571428571428        7.999999999999998        0                        0.037384347838984394
5.714285714285714         -8                       0                        0.027929162587879353
3.428571428571428         -7.999999999999998       0                        0.04189374388181908
3.0090496040347356        -8.4                     0                        0.05047614280205284
-5.824142950696392        -8.4                     0                        0.0314203079113643
-5.714285714285713        -8                       0                        0.026838179674290315
-3.4285714285714284       -7.999999999999998       0                        0.038838991723769783
-3.0090496040347245       -8.400000000000002       0                        0.04742139064400358
-7.999999999999998        -3.428571428571428       0                        0.03505691762332778
-8.4                      -3.0090496040347268      0                        0.043202923378125924
-8.000000000000002        -1.1428571428571426      0                        0.0477123194209606
-8.4                      -8.965050923848139E-15   0                        0.05280357301770946
7.999999999999998         -1.142857142857142       0                        0.04174827949334058
-7.999999999999998        1.142857142857142        0                        0.04567581798226111
-1.142857142857142        -7.999999999999998       0                        0.04567581798226109
-5.551115123125783E-17    -8.4                     0                        0.051785322298359686
1.1428571428571426        -8.000000000000002       0                        0.04873057014031037
-8                        5.714285714285713        0                        0.05305618307656507
-8                        8                        0                        0.05140389299898973
-8                        6.399613512553145        1.709006963007598        0.05408976567410091
-8                        4.482995757972045        1.9744690261730424       0.060300845791730985
-7.999999999999998        3.4285714285714284       0                        0.0584151541349394
-8                        2.2857142857142847       2.1395157600494485       0.061349875395944664
-8                        8                        2.5641025641025665       0.06530322423193367
-8                        -5.714285714285714       0                        0.05758376971754482
-8                        -5.754801530403203       1.8820578931072252       0.06549560489078766
-8                        -8                       0                        0.07005848266466097
-8                        -8                       2.5641025641025665       0.08738154518267265
-7.999999999999998        -3.428571428571428       0                        0.05998129120826789
-8                        -3.9609101705761747      2.524278643727529        0.054962271217850245
-7.999999999999998        1.142857142857142        0                        0.06028552589456695
-8.000000000000002        -1.1428571428571426      0                        0.06275692751964491
-8                        -2.1043988840981296      2.225593583014818        0.05565103027604341
-8                        0                        2.1395157600494485       0.06001595414719888
-7.999999999999998        7.999999999999998        5.128205128205133        0.09164930874686372
-8                        5.8007860869900565       4.006463218196776        0.07283351633287061
-8                        1.0269477883073517       4.034277380187001        0.06679301704915791
-8                        3.268663356429825        4.160269695150487        0.06863944565494974
-7.999999999999998        -7.999999999999998       5.128205128205133        0.09877395660103833
-8                        -5.4484138510570155      4.107507802736166        0.07852755087204501
-8                        -3.041207673239231       3.888516329869307        0.04818440394731133
-8                        -5.746647837406634       6.703549938355801        0.09120752352021383
-8                        -3.6408576312798684      5.745116325733803        0.06457732966649089
-8                        -8                       7.692307692307701        0.09416303033231392
-8                        4.191857806960444        5.720834870997327        0.06845159632138982
-8                        5.94189573375385         6.553042846969359        0.08436237956361459
-8                        8                        7.692307692307701        0.09681815623449262
-8                        -5.786728177056389       8.980454142114658        0.09528084746641113
-8                        -3.7122975175897484      7.883722758340506        0.07817575866455802
-8                        -1.0666328400541012      3.8460760166785235       0.05102412813596691
-8                        -1.9515480287373954      6.926208432567616        0.059326467632079855
-8                        -2.010239761225051       5.2158163145966          0.04318213127283007
-8                        1.962363115826589        6.3043447651149          0.07874527130273569
-8                        -0.3532909498000407      5.703356428415108        0.062217118193795475
-8                        -0.08063597291763759     7.893415661345959        0.07654291612801638
-8                        3.882628231042066        7.79608719775009         0.07931475986757029
-8                        -1.895738749287311       9.105278866375667        0.0731756912014799
-7.999999999999998        -7.999999999999998       10.256410256410268       0.10133738051679575
-8                        1.799033486682216        8.98930315195119         0.08728167005212752
-8                        3.5522045550610564       10.25641025641022        0.09319485443744953
-8                        5.776102277530525        8.974358974358987        0.09567980798905538
-7.999999999999998        7.999999999999998        10.256410256410268       0.1041708234508729
-8                        -0.08321872793017526     10.247747910984728       0.08199190158172995
-8                        1.7217323080633822       11.505753302241995       0.0851174632926885
-8                        -5.776102277530514       11.538461538461497       0.1018987936622147
-8                        -8                       12.820512820512837       0.10699665344792815
-8                        -3.7540090134038966      10.312804120893947       0.08758387697362575
-8                        -1.9204304450892735      11.511182428211475       0.0870405334237762
-8                        3.5522045550610244       12.82051282051282        0.09857431322011521
-8                        8                        12.820512820512837       0.10700888575744717
-8                        5.776102277530514        11.538461538461497       0.10779370513093654
-8.000000000000002        8.000000000000002        15.384615384615401       0.10943080858980629
-8                        5.776102277530524        14.10256410256412        0.11110093560407751
-8                        -5.776102277530524       14.10256410256412        0.10491890865302138
-8.000000000000002        -8.000000000000002       15.384615384615401       0.10867773201052805
-8                        -3.721562756843417       12.74242196360682        0.09546483669292172
-8                        -0.10906543442189731     12.747966585779945       0.08858953348260785
-8                        -1.9364541467296488      13.992417313189275       0.09566755536384246
-8                        1.7164563219627242       14.05512977703225        0.08784054870612275
-8                        3.552204555061049        15.384615384615397       0.10199675860822087
-8                        5.776102277530525        16.66666666666668        0.11216427791112149
-7.999999999999998        7.999999999999998        17.948717948717967       0.1068950789251626
-8                        -3.830218715012013       15.31543874986767        0.09579551487598488
-8                        -5.776102277530526       16.66666666666665        0.10120296689669812
-7.999999999999998        -7.999999999999998       17.948717948717967       0.10634382253023549
-8                        -0.11557740468984123     15.291572288592437       0.09105099795287624
-8                        -1.9567508865658196      16.55198051081075        0.0914856444325108
-8                        1.7161987618227972       16.61267166332867        0.09128745535765537
-8                        -0.11902771243354195     17.84529448682051        0.09016976379391871
-8                        1.7137574578770973       19.158821245964575       0.09328775582635485
-8                        3.5522045550610617       17.948717948717956       0.0996209981184334
-8                        5.776102277530526        19.230769230769205       0.10870329440482218
-8.000000000000002        8.000000000000002        20.51282051282054        0.10903245203202455
-8                        -3.82120332197573        17.85285757683457        0.0951263251156873
-8                        -5.776102277530526       19.230769230769205       0.1037413807704557
-8.000000000000002        -8.000000000000002       20.51282051282054        0.10352364363499861
-8                        -5.776102277530514       21.79487179487179        0.0980187775817873
-8                        -8                       23.0769230769231         0.10042760661980142
-8                        -3.827588452737939       20.424864055639635       0.0950375446173556
-8                        -1.9592042811756973      19.11195645635906        0.09056918159226941
-8                        -0.11388093783221541     20.406358326216424       0.09510161030281522
-8                        8                        23.0769230769231         0.10860051393812019
-8                        5.776102277530514        21.79487179487179        0.1086124586551402
-8                        3.552204555061035        20.51282051282044        0.0994304416602222
-8                        1.7158245672928751       21.720907031230286       0.09233124284118656
-8                        -1.9683460160034083      21.690517329062086       0.09141874832097226
-8                        5.776102277530514        24.358974358974343       0.10719362795825976
-8                        8                        25.641025641025678       0.1103955443008493
-8                        3.5522045550610386       23.076923076923066       0.09834662401391497
-8                        -5.776102277530514       24.358974358974343       0.0975311944178661
-8                        -8                       25.641025641025678       0.1051708363749241
-8                        -3.8409965569192366      22.996648971229906       0.0894748080461371
-8                        -3.8139511220927034      25.549798549576906       0.09052212476695241
-8                        -1.959910318603026       24.24589171098504        0.08968585756936237
-8                        -0.12141596161162171     22.979018696188547       0.0916567189537546
-8                        1.715814264512199        24.299276501019417       0.08894648751787519
-8                        -5.776102277530527       26.923076923076938       0.095604088721827
-7.9999999999999964       -7.9999999999999964      28.205128205128236       0.10409861137257069
-8                        3.552204555061025        25.64102564102566        0.09632250264355328
-8                        5.776102277530525        26.923076923076962       0.10667418006585766
-7.9999999999999964       7.9999999999999964       28.205128205128236       0.10059081136382148
-8                        -0.11998395581493027     25.547111026387846       0.08806474252886465
-8                        -1.9554241446733513      26.798902917950866       0.08671972261785243
-8                        -3.8271474989923147      28.119639533375          0.08464517491341263
-8                        -5.776102277530523       29.48717948717951        0.0914434707289899
-7.999999999999998        -7.999999999999998       30.7692307692308         0.09603496560819612
-8                        1.7170846777242217       26.86446427355378        0.08619269298915878
-8                        -3.842326917971946       30.690255283764813       0.08146181702401727
-8                        3.5522045550610493       28.20512820512824        0.09699274852811472
-7.999999999999998        7.999999999999998        30.7692307692308         0.10432135949508121
-8                        5.776102277530525        29.487179487179517       0.10357131564281168
-8                        -1.9654201059302314      29.37418067478721        0.08294222698349371
-8                        -0.12251723506813804     28.111180961120823       0.08314805433793765
-8                        1.7127913733278994       29.417414145291467       0.0825404650228319
-8                        -5.776102277530526       32.05128205128205        0.08702688897766482
-8                        -8                       33.33333333333337        0.0838722105318886
-8                        3.5522045550610493       30.769230769230795       0.09142518508886906
-8                        5.776102277530525        32.05128205128208        0.09920302658183543
-8                        8                        33.33333333333337        0.09564012696787505
-8                        -3.8141339310020586      33.24205790336337        0.08042198455787664
-8                        -1.9636733602205165      31.935109887738086       0.07870147228250331
-8                        -0.12415125504244351     30.665012728753503       0.08276110865315782
-8                        1.7147735591435378       31.98951543262321        0.08270443050573127
-8                        3.5522045550610444       33.33333333333336        0.08768342565473618
-8                        -0.11704197295649266     33.22043931956401        0.07968152427080553
-8                        -5.776102277530509       34.61538461538463        0.08452015987451748
-8                        -8                       35.89743589743594        0.08041558890408139
-8                        -3.824533647543424       35.80994279947316        0.0812389618737044
-8                        5.776102277530514        34.615384615384635       0.08917316872759766
-8                        8                        35.89743589743594        0.08437032997391368
-8                        1.7206450309432313       34.553326244526296       0.0776642598864783
-8                        -1.9566941303588108      34.498974464209375       0.07915909328115807
-8                        -5.776102277530525       37.179487179487225       0.08140568503740916
-8                        -8                       38.4615384615385         0.08103509816239
-8                        -3.738004916084436       38.33846153846161        0.07620455202456984
-8                        -1.9332011136432339      37.056777890766206       0.07619467838846232
-8                        5.776102277530525        37.179487179487225       0.08045162154766325
-8                        8                        38.4615384615385         0.07894984976718361
-8                        5.776102277530519        39.74358974358978        0.07649168462341582
-8                        -5.776102277530519       39.74358974358978        0.08001838743798437
-8                        3.5522045550610333       35.89743589743595        0.08333786887978528
-8                        -0.10440329570126394     35.78182349600478        0.07529882164970611
-8                        1.7365953237776353       37.0988603242147         0.07547206444846266
-8                        -0.0740329054585831      38.3203691500474         0.07240770532357892
-8                        3.7130064962925395       38.42658851973195        0.07632853503593488
-8                        -8                       41.02564102564108        0.0745541450198594
-8                        8                        41.02564102564108        0.07896333208400308
-8                        -3.7380049160844404      40.90256410256416        0.07190441982606434
-8                        -1.901537786712888       39.591095896400894       0.06802349521916895
-8                        1.8004777585988716       39.63972468587092        0.07241519664849153
-8                        -0.061811597806911596    40.84401738971057        0.07185596995155626
-8                        3.7123812543917154       40.98967952667729        0.07292629555298298
-8                        5.776102277530526        42.30769230769238        0.07487465501785723
-8                        -5.776102277530525       42.30769230769238        0.07140405608203666
-8                        -8                       43.58974358974364        0.06747247445353864
-8                        -3.7380049160844377      43.46666666666679        0.06760910669631211
-8                        -1.8950863692344304      42.14912671713831        0.06514427947314709
-8                        8                        43.58974358974364        0.07345669908416509
-8                        5.776102277530519        44.87179487179493        0.06831097986498746
-8                        -5.776102277530519       44.87179487179493        0.0684069488013746
-8                        1.8051557205423947       42.20296932394816        0.07177686023851151
-8                        -0.05402429069179204     43.40742985944477        0.06892380931468367
-8                        3.6910011087671943       43.55849137630719        0.0708686745822833
-8                        -8                       46.1538461538462         0.0666307474074626
-8                        8                        46.1538461538462         0.06966362005078204
-8                        -3.7380049160844395      46.030769230769344       0.06505228899603945
-8                        -1.892821011268893       44.713063643202574       0.06557739955353115
-8                        1.8082720204042495       44.76626900854439        0.06617122532163953
-8                        -0.052158836996461844    45.97115385276016        0.06597707053884908
-8                        3.7136555732676797       46.11627723992249        0.06354579310842078
-8                        5.776102277530526        47.43589743589749        0.06498429234842802
-8                        -5.776102277530525       47.43589743589749        0.06623557054761159
-8                        -8                       48.71794871794877        0.06704513118011152
-8                        -3.738004916084439       48.5948717948719         0.05866673420510544
-8                        -1.8796467385217939      47.25323553243601        0.06076284655998649
-8                        8                        48.71794871794877        0.06378408821969994
-8                        5.776102277530514        50.00000000000004        0.06099342441910158
-8                        -5.776102277530513       50.000000000000064       0.06357289920578431
-8                        1.8073970888077842       47.329425234900604       0.06268565758203644
-8                        -0.052732904668664204    48.5350688391251         0.05883149908567815
-8                        3.745135709791313        48.67278774031427        0.06283740974327649
-8                        -8                       51.28205128205134        0.06349149902167812
-8                        8                        51.28205128205134        0.0633073527581988
-8                        -3.738004916084438       51.158974358974525       0.05584198549174276
-8                        -1.8796058291287763      49.81730633017889        0.055767303295057545
-8                        1.8188325682874993       49.89169049668779        0.05956655423126634
-8                        -0.049068507565419146    51.10604397053336        0.05645358978611748
-8                        3.7192109345474016       51.2440318130724         0.056697523760811275
-8                        5.776102277530525        52.56410256410264        0.057998014498917054
-8                        -5.776102277530525       52.56410256410264        0.05875221811331144
-8                        -8                       53.846153846153896       0.05660943026343777
-8                        -1.8822826937231445      52.387899162366594       0.054977421378625074
-8                        -3.7380049160844404      53.72307692307707        0.050818314234225725
-8                        8                        53.846153846153896       0.06136430554069503
-8                        5.776102277530519        55.128205128205195       0.05349613104968315
-8                        -5.776102277530519       55.128205128205195       0.05373637204159102
-8                        1.8163666973574344       52.45666126985513        0.053561755806104866
-8                        -0.04762510966065925     53.67222613577219        0.05206904125656475
-8                        3.719209493164947        53.80830630948126        0.05247515549510864
-8                        -8                       56.410256410256466       0.053775423789174326
-8                        8                        56.410256410256466       0.05532404224622881
-8                        -3.7380049160844417      56.28717948717963        0.04908086522276365
-8                        -1.8864013985029755      54.9630891066204         0.04970821895529382
-8                        1.8138408946511915       55.020280691438515       0.048552195535736274
-8                        -0.040378808697045354    56.258197748145754       0.04687265086653261
-8                        3.7185450841743712       56.37222818744425        0.04808025318255734
-8                        5.776102277530526        57.69230769230775        0.049516685316279986
-8                        -5.776102277530525       57.69230769230778        0.05134312793453105
-8                        -8                       58.97435897435903        0.048510121396061374
-8                        -1.8843285166570252      57.51542157901107        0.046930233741033556
-8                        -3.7380049160844417      58.85128205128218        0.04503148660446201
-8                        8                        58.97435897435903        0.04908151902142364
-8                        5.776102277530525        60.256410256410334       0.045987784006253835
-8                        -5.776102277530525       60.256410256410334       0.04522861231986066
-8                        1.8245352842721374       57.58665976833659        0.0445148130153963
-8                        -0.03840753766844829     58.826135885578125       0.045210738177129665
-8                        3.7180422825573203       58.93618978380886        0.04393055687045719
-8                        -8                       61.5384615384616         0.04436033608920823
-8                        8                        61.5384615384616         0.04477965420604197
-8                        -3.7380049160844404      61.41538461538476        0.04281876567118945
-8                        -1.8873040674358725      60.08268175134639        0.043588272096057555
-8                        1.8105366989972946       60.14772975529965        0.04295911095463656
-8                        -0.053505816490180276    61.36612471132928        0.04171254600853661
-8                        3.717773350464043        61.500369270247674       0.04296543556202187
-8                        5.776102277530519        62.82051282051292        0.04351664723122797
-8                        -5.776102277530519       62.82051282051292        0.044445647536179515
-8                        -8                       64.10256410256417        0.0432817430735773
-8                        -1.882404422309085       62.6365289117421         0.04142387457074582
-8                        -3.7380049160844364      63.979487179487315       0.04146593423189877
-8                        8                        64.10256410256417        0.03839046645614672
-8                        5.776102277530514        65.38461538461546        0.03911885335420898
-8                        -5.776102277530514       65.38461538461546        0.041236365718670516
-8                        1.8115140867146753       62.71351559729347        0.04106452984233221
-8                        -0.04657919364945373     63.9354389574244         0.03843644055134296
-8                        3.7151263087981583       64.06483214538041        0.04167034531834877
-8                        -8                       66.66666666666673        0.040228104999824106
-8                        8                        66.66666666666673        0.03835683755932615
-8                        -3.7380049160844364      66.5435897435899         0.03604650540357896
-8                        -1.8794389840534655      65.2095196074543         0.039088054309432824
-8                        1.8125170056119124       65.27845774696345        0.0369547166932742
-8                        -0.04212431538076622     66.48550378611553        0.03516143862438774
-8                        3.693058412433663        66.63337299282763        0.03685416322020568
-8                        5.7761022775305255       67.94871794871804        0.037169316038040426
-8                        -5.776102277530525       67.94871794871804        0.03567741713253749
-8                        -8                       69.2307692307693         0.0357760983653825
-8                        -1.8683100900738228      67.76112617175414        0.033477695679899104
-8                        -3.7380049160844373      69.10769230769247        0.0338225003088909
-8                        8                        69.2307692307693         0.038528243876153244
-8                        5.776102277530514        70.51282051282061        0.03557981399092741
-8                        -5.776102277530514       70.51282051282061        0.03564011313068368
-8                        1.8200252330299218       67.83681060341897        0.034004151281783405
-8                        -0.012894125852987774    69.04553646876262        0.031861608076156525
-8                        3.717367602065906        69.19104076292797        0.033104653910282465