% Model:              Cav_Hex_Unif_flux_v5.1.2 - Wall Distn.mph
% Version:            COMSOL 5.5.0.359
% Date:               May 16 2022, 16:43
% Dimension:          3
% Nodes:              1826
% Expressions:        1
% Description:        Surface
% x                       y                        z                        Color
-1                        0.7341292700078723       49.73016380338987        3.106292773357565E-66
-1                        1                        49.6124031007752         0
-1                        1                        50                       0
-1                        0.5999999999999999       50                       0
-1                        0.19999999999999948      50                       0
-1                        0.38111210693000125      49.63287709146556        2.2187805523982605E-66
-1                        0.6914798298975102       49.40570760710693        2.588577311131304E-66
-1                        1                        49.2248062015504         0
-1                        1                        48.83720930232559        2.7143200425967108E-43
-1                        0.6635414102482411       49.03100775193799        1.6964500266229838E-45
-1                        -0.022695248993348294    49.68716171430425        0
-1                        -0.20000000000000018     50                       1.6566894791240456E-63
-1                        0.09836177863380091      49.39526615978301        0
-1                        -0.39738041842737953     49.70397880746825        8.283479752836616E-64
-1                        -0.6000000000000001      50                       1.6566894791240456E-63
-1                        -0.21895298358957163     49.39176608722758        0
-1                        -0.7190093876056589      49.743567143472          3.8828659666969724E-69
-1                        -1                       50                       0
-1                        -0.013424971416534206    49.05095160054088        9.443130031006808E-56
-1                        0.3631594067170336       49.217228872550585       1.6964500266229838E-45
-1                        1                        48.44961240310078        2.7143200425967108E-43
-1                        0.6635414102482369       48.64341085271319        1.3571600212983554E-43
-1                        0.3270828204964782       48.83720930232559        1.6964500266296106E-45
-1                        1                        48.06201550387597        1.92864038879531E-89
-1                        0.6635414102482375       48.25581395348838        1.6567703721663298E-62
-1                        -0.009375769255285993    48.643410852713195       1.1016985036174609E-55
-1                        -0.6236248903756987      49.401377899805674       2.773476037182299E-69
-1                        -0.3387404875764728      48.81880760507406        1.0857280170386577E-30
-1                        -0.3662068562419716      49.12636205546553        6.361687798638885E-55
-1                        -0.6645126092583694      49.00767976279964        1.0857280170386577E-30
-1                        -1                       49.6124031007752         0
-1                        -1                       49.2248062015504         0
-1                        1                        47.674418604651166       1.5429315974401212E-84
-1                        0.66354141024824         47.868217054263575       1.8215493459108416E-7
-0.9999999999999998       0.9999999999999998       47.28682170542636        5.4286400851934074E-42
-1                        0.66354141024824         47.48062015503877        2.7143200425967037E-42
-1                        0.3270828204964784       47.67441860465117        1.8215493459108416E-7
-1                        0.32708282049647885      48.06201550387597        1.8215493459108416E-7
-1                        0.32708282049647464      48.44961240310079        5.301406333196752E-49
-1                        0.009375769255285604     48.25581395348838        5.301459347260084E-49
-1                        -0.3270828204964747      48.44961240310079        2.650703166598383E-50
-1                        -0.32708282049647885     48.06201550387597        8.685824136309187E-27
-1                        0.00937576925528183      47.868217054263575       1.8240230686944088E-25
-1                        -0.6635414102482369      48.64341085271319        1.0857280170386577E-30
-1                        -0.6635414102482375      48.25581395348838        6.948659309047304E-24
-1                        -1                       48.44961240310078        0
-1                        -1                       48.83720930232559        0
-1                        1                        46.511627906976756       2.4686596976580284E-94
-1                        1                        46.89922480620155        2.4686596976580284E-94
-1                        0.6635414102482429       46.70542635658915        4.453182645402558E-51
-1                        0.00937576925528183      47.48062015503877        1.7371648272618303E-25
-1                        0.32708282049647797      47.28682170542636        3.313378958248019E-56
-1                        0.6635414102482375       47.09302325581397        2.71432004280876E-42
-1                        0.3270828204964802       46.89922480620156        2.1208938728312696E-52
-1                        0.00937576925528294      47.09302325581397        3.31337895824802E-56
-1                        -0.32708282049647885     47.28682170542636        1.6964500266229566E-47
-1                        -0.66354141024824        47.868217054263575       6.948659309047304E-24
-1                        -0.32708282049647774     47.67441860465117        1.8240230686249221E-25
-1                        -0.6635414102482402      47.48062015503877        8.697619765401002E-54
-1                        -0.6635414102482373      47.09302325581397        1.325354819020895E-55
-1                        -1                       47.674418604651166       1.7395239530802005E-53
-1                        -1                       48.06201550387597        1.3897318618094608E-23
-0.9999999999999998       0.9999999999999998       45.736434108527135       1.6964500266229686E-50
-1                        1                        46.12403100775194        1.6964500266229686E-50
-1                        0.66354141024824         45.93023255813954        8.482250133114843E-51
-1                        0.3270828204964764       46.51162790697676        4.241126391909013E-51
-1                        0.6635414102482351       46.31782945736435        4.241126391909013E-51
-1                        0.009375769255279165     46.705426356589165       5.309888583329848E-47
-1                        0.32708282049647597      46.12403100775194        6.785800106491794E-45
-1                        0.009375769255290933     46.317829457364354       1.3571600212988584E-34
-1                        -0.32708282049648        46.89922480620156        3.235734918366332E-61
-1                        -0.32708282049647636     46.51162790697676        4.553873364777077E-6
-1                        -0.6635414102482426      46.70542635658915        3.562545055908119E-35
-1                        -1                       46.89922480620155        7.125090111816238E-35
-0.9999999999999998       -0.9999999999999998      47.28682170542636        1.2942886555656857E-75
-1                        1                        45.348837209302346       4.449319486109387E-67
-1                        0.6635414102482426       45.54263565891474        2.7794637236189205E-23
-1                        1                        44.96124031007753        4.542333843690747E-83
-1                        0.6635414102482375       45.15503875968994        2.2235709788951265E-21
-1                        0.3270828204964831       45.736434108527135       2.7794637236189205E-23
-1                        0.3270828204964802       45.34883720930235        2.7794637236189205E-23
-1                        0.00937576925527872      45.93023255813954        4.553873364777089E-6
-1                        0.009375769255273614     45.542635658914755       1.8670880795586007E-4
-1                        -0.32708282049648396     45.736434108527135       1.8670880795586007E-4
-1                        -0.3270828204964751      46.12403100775194        4.553873364777077E-6
-1                        -0.6635414102482349      46.31782945736435        4.553873364777077E-6
-1                        -0.66354141024824        45.93023255813954        2.2769366823885468E-7
-1                        -1                       46.12403100775194        4.5538733647770935E-7
-1                        -1                       46.511627906976756       7.125090111816238E-35
-1                        0.66354141024824         44.76744186046513        2.2235709788951265E-21
-1.0000000000000002       1.0000000000000002       44.573643410852725       3.2357216389142204E-77
-1                        1                        44.18604651162791        1.0111630549530907E-67
-1                        0.6635414102482335       44.37984496124031        1.1132954108644231E-54
-1                        0.32708282049647264      44.57364341085273        1.1132979994420148E-54
-1                        0.32708282049647797      44.96124031007754        2.2235709788951265E-21
-1                        0.009375769255284938     45.155038759689944       1.4268238140219531E-58
-1                        0.009375769255284494     44.76744186046514        1.325351616433011E-59
-1                        -0.3270828204964782      44.96124031007754        4.141724961763836E-62
-1                        -0.3270828204964802      45.34883720930235        1.82154934591083E-4
-1                        -0.6635414102482429      45.54263565891474        1.0857280170386796E-40
-1                        -0.6635414102482375      45.15503875968994        4.141724013798512E-62
-1                        -1                       45.348837209302346       6.319768826004212E-69
-0.9999999999999998       -0.9999999999999998      45.736434108527135       4.5538733647770935E-7
-1                        1                        43.7984496124031         2.1714560340773685E-38
-1                        0.6635414102482411       43.992248062015506       4.342912068154683E-37
-1                        1                        43.41085271317829        8.894466752178558E-20
-1                        0.6635414102482369       43.6046511627907         1.0857280170386842E-38
-1                        0.3270828204964782       43.798449612403104       4.364117693487468E-37
-1                        0.32708282049647464      44.18604651162791        4.342912068154682E-37
-1                        0.009375769255293155     44.379844961240316       4.931239811344457E-59
-1                        0.00937576925528294      43.992248062015506       2.120563063419291E-39
-1                        -0.32708282049647264     44.57364341085273        5.558927447237947E-33
-1                        -0.32708282049647464     44.18604651162791        5.558927447239537E-33
-1                        -0.6635414102482402      44.76744186046513        1.0602813080566008E-54
-1                        -0.6635414102482333      44.37984496124031        5.558927447239007E-33
-1.0000000000000002       -1.0000000000000002      44.573643410852725       2.1205625332787277E-54
-1                        -1                       44.96124031007753        2.1205625332787277E-54
-1                        1                        43.02325581395349        8.894466752178558E-20
-1                        0.6635414102482411       43.2170542635659         4.447233376089279E-20
-1                        1                        42.63565891472869        3.474329654576759E-36
-1                        0.663541410248242        42.82945736434109        4.3429120946618114E-39
-1                        0.3270828204964824       43.02325581395349        4.3429120681547796E-39
-1                        0.3270828204964773       43.41085271317829        6.47144327782842E-76
-1                        0.009375769255284938     43.6046511627907         2.1205625332786577E-39
-1                        0.009375769255280275     43.2170542635659         1.0864228856839023E-31
-1                        -0.32708282049647797     43.798449612403104       5.354420398649221E-44
-1                        -0.32708282049647724     43.41085271317829        8.617966135244543E-43
-1                        -0.6635414102482406      43.992248062015506       5.407434461981188E-44
-1                        -0.6635414102482367      43.6046511627907         6.658568475057583E-44
-1                        -1                       43.7984496124031         3.2388815233271767E-71
-1                        -1                       44.18604651162791        2.5279075304016826E-68
-1                        1                        42.24806201550388        2.7829380532735012E-33
-1                        0.6635414102482375       42.441860465116285       1.7371648272883793E-36
-0.9999999999999998       0.9999999999999998       41.86046511627906        2.7794637236189773E-33
-1                        0.6635414102482335       42.05426356589147        6.948659309186254E-23
-1                        0.3270828204964713       42.24806201550388        6.948659309047281E-23
-1                        0.32708282049647974      42.635658914728694       2.7143200425967084E-43
-1                        0.009375769255276944     42.8294573643411         5.558927447248664E-20
-1                        0.009375769255286936     42.4418604651163         5.558927534096043E-20
-1                        -0.32708282049648224     43.02325581395349        1.0864228856923845E-31
-1                        -0.32708282049648046     42.635658914728694       5.558927447237801E-20
-1                        -0.6635414102482409      43.2170542635659         3.4743296545236536E-24
-1                        -0.6635414102482418      42.82945736434109        3.3133789582479942E-52
-1                        -1                       43.02325581395349        6.948659309047307E-24
-1                        -1                       43.41085271317829        6.948659309047307E-24
-0.9999999999999998       0.9999999999999998       41.47286821705427        1.6566894791240554E-68
-1                        0.6635414102482429       41.66666666666666        5.428640085196693E-39
-0.9999999999999998       0.9999999999999998       41.08527131782947        1.0857280170403346E-40
-1                        0.663541410248242        41.27906976744187        5.428640085201673E-41
-1                        0.32708282049648485      41.47286821705427        5.558935047334082E-33
-1                        0.32708282049647486      41.86046511627906        6.948659309047282E-23
-1                        0.00937576925529382      42.05426356589147        8.685824179738298E-28
-1                        0.00937576925527761      41.66666666666666        3.474330488797294E-26
-1                        -0.3270828204964751      41.86046511627906        4.447141992533544E-18
-1                        -0.3270828204964704      42.24806201550388        8.685824140550356E-28
-1                        -0.6635414102482373      42.441860465116285       4.241179352958144E-37
-1                        -0.6635414102482333      42.05426356589147        4.447141957790223E-18
-1                        -1                       42.24806201550388        2.651572928577549E-56
-1                        -1                       42.63565891472869        5.0558150608034843E-79
-1                        1                        40.69767441860465        8.685824136309339E-36
-1                        0.663541410248236        40.89147286821706        4.342966354555522E-36
-1                        1                        40.310077519379846       8.685824136309331E-35
-1                        0.6635414102482402       40.50387596899225        4.777208724815848E-36
-1                        0.6635414102482369       40.11627906976744        1.778856783116087E-17
-1                        0.3270828204964764       40.69767441860465        5.449845710725E-42
-1                        0.3270828204964773       41.08527131782947        1.7371648272619383E-36
-1                        0.0093757692552765       41.279069767441875       5.692341705971377E-8
-1                        0.009375769255288269     40.891472868217065       1.423085426492884E-13
-1                        0.009375769255283828     40.503875968992254       3.491701302796321E-31
-1                        -0.3270828204964844      41.47286821705427        5.692341705971377E-8
-1                        -0.3270828204964773      41.08527131782947        5.692355936825642E-8
-1                        -0.6635414102482418      41.66666666666666        4.447141957790245E-18
-1                        -0.6635414102482418      41.27906976744187        1.3253515832992056E-54
-0.9999999999999998       -0.9999999999999998      41.47286821705427        5.566476649856647E-53
-0.9999999999999998       -0.9999999999999998      41.86046511627906        5.304057036446239E-53
-1                        1                        39.922480620155035       8.685824136309336E-35
-1                        1                        39.53488372093023        5.56647664985661E-50
-1                        0.6635414102482411       39.72868217054263        1.737167541581944E-36
-1                        0.6635414102482369       39.34108527131784        6.948659309047437E-25
-1                        0.3270828204964782       39.922480620155035       1.778856783116087E-17
-1                        0.32708282049647597      40.31007751937985        1.7788567831160872E-17
-1                        0.009375769255286714     40.116279069767444       1.1384683411942818E-10
-1                        0.009375769255281385     39.72868217054264        1.1384683411942824E-10
-1                        -0.3270828204964759      40.31007751937985        2.846170855209276E-11
-1                        -0.32708282049647636     40.69767441860465        1.423085426492884E-13
-1                        -0.663541410248236       40.89147286821706        3.4187421441405117E-68
-1                        -0.66354141024824        40.50387596899225        2.8461708529857054E-11
-1                        -0.6635414102482369      40.11627906976744        2.846170855209276E-11
-1                        -1                       40.69767441860465        5.177154622262662E-69
-0.9999999999999998       -0.9999999999999998      41.08527131782947        5.0624508180707886E-79
-1                        1                        39.14728682170542        2.070878836443642E-62
-1                        1                        38.75968992248062        8.8942839155805E-21
-1                        0.6635414102482411       38.95348837209302        4.447836823721155E-21
-1                        0.6635414102482402       38.565891472868216       1.778857227830274E-14
-1                        0.3270828204964773       39.14728682170542        6.948659395905678E-25
-1                        0.3270828204964782       39.53488372093024        1.7371675415819158E-36
-1                        0.009375769255284272     39.34108527131784        6.948660177629742E-26
-1                        0.009375769255280943     38.95348837209303        2.8461708529857115E-12
-1                        -0.3270828204964782      39.53488372093024        7.115427132464345E-12
-1                        -0.3270828204964773      39.922480620155035       1.2096226127412817E-10
-1                        -0.6635414102482411      39.72868217054263        9.961597985449987E-12
-1                        -0.6635414102482369      39.34108527131784        6.3161286391604345E-59
-1                        -1                       39.922480620155035       5.692341705971424E-12
-1                        -1                       40.310077519379846       1.0354309244525083E-57
-1                        1                        38.372093023255815       2.846170852985725E-14
-1                        1                        37.984496124031          6.785800106491684E-37
-1                        0.663541410248236        38.178294573643406       1.138482572048543E-9
-1                        0.6635414102482411       37.7906976744186         3.392900053246049E-37
-1                        0.3270828204964764       38.372093023255815       1.1384718989078444E-9
-1                        0.32708282049648085      38.759689922480625       3.557713566232159E-15
-1                        0.00937576925528183      38.56589147286822        2.846171742414103E-12
-1                        0.009375769255289157     38.17829457364341        8.899842843027693E-19
-1                        -0.3270828204964799      38.759689922480625       2.8461708529857115E-12
-1                        -0.32708282049647813     39.14728682170542        6.948659309047487E-36
-1                        -0.6635414102482409      38.95348837209302        6.212849581600918E-59
-1                        -0.6635414102482402      38.565891472868216       5.558927447251501E-31
-1                        -1                       39.14728682170542        1.6178717055058054E-84
-1                        -1                       39.53488372093023        5.692341705971424E-12
-1.0000000000000002       1.0000000000000002       37.5968992248062         6.785800106491766E-37
-1                        1                        37.2093023255814         4.142055367367429E-60
-1                        0.6635414102482411       37.4031007751938         6.51439524543239E-30
-1                        0.6635414102482375       37.01550387596899        4.3429393810244774E-30
-1                        0.3270828204964824       37.59689922480621        1.4230854264928604E-13
-1                        0.32708282049647686      37.984496124031          1.1384683411942781E-9
-1                        0.00937576925527761      37.790697674418595       1.423085432051788E-13
-1                        0.009375769255278499     37.403100775193806       5.706572560236338E-11
-1                        -0.32708282049647647     38.372093023255815       8.894283915580456E-19
-1                        -0.32708282049647686     37.984496124031          5.736813125549429E-22
-1                        -0.663541410248236       38.178294573643406       1.1673747639200975E-29
-1                        -0.6635414102482411      37.7906976744186         1.8677996222719175E-23
-1                        -1                       38.372093023255815       2.3347495278399232E-29
-1                        -1                       38.75968992248062        1.5450357901171413E-81
-1                        1                        36.82170542635659        4.553873364777094E-7
-1                        1                        36.434108527131784       4.553873364777094E-7
-1                        0.6635414102482402       36.627906976744185       2.276936682388547E-7
-1                        0.6635414102482364       36.240310077519375       3.557713566233906E-16
-1                        0.32708282049647774      36.82170542635659        2.1717970311355252E-41
-1                        0.3270828204964782       37.2093023255814         5.6923417059714095E-11
-1                        0.009375769255284716     37.015503875969          5.6923417059714095E-11
-1                        0.009375769255283162     36.62790697674419        5.564356087323204E-33
-1                        -0.3270828204964827      37.59689922480621        1.7788567831595583E-23
-1                        -0.3270828204964784      37.2093023255814         1.821549345910827E-4
-1                        -0.6635414102482418      37.4031007751938         1.821549345910827E-4
-1                        -0.6635414102482373      37.01550387596899        1.821549345910827E-4
-1.0000000000000002       -1.0000000000000002      37.5968992248062         1.7788567831161166E-24
-1                        -1                       37.984496124031          2.2235709788951647E-29
-1                        1                        36.046511627906966       7.115429911931537E-16
-1                        1                        35.65891472868218        3.557741360869413E-17
-1                        0.6635414102482436       35.85271317829458        3.735600634277378E-16
-1                        0.6635414102482369       35.46511627906978        1.7788567831160903E-17
-1                        0.32708282049647996      36.046511627906966       1.8215504843791738E-5
-1                        0.3270828204964762       36.434108527131784       3.4748725185322085E-29
-1                        0.009375769255286492     36.240310077519375       8.894283919055349E-20
-1                        0.009375769255275612     35.85271317829458        1.8215504843791738E-5
-1                        -0.3270828204964762      36.434108527131784       8.89428391558049E-20
-1                        -0.3270828204964777      36.82170542635659        1.3571600212995386E-34
-1                        -0.6635414102482402      36.627906976744185       1.1117855165908876E-28
-1                        -0.6635414102482364      36.240310077519375       1.0608114072726541E-41
-1                        -1                       36.82170542635659        2.22357146747277E-28
-1                        -1                       37.2093023255814         4.3429120681546675E-35
-1                        1                        35.27131782945737        1.4302008536253274E-14
-1.0000000000000002       1.0000000000000002       34.88372093023256        1.4302008536253274E-14
-1                        0.6635414102482406       35.077519379844965       7.151004268126637E-15
-1                        0.6635414102482355       34.689922480620154       6.785801463662264E-34
-1                        0.3270828204964771       35.27131782945737        2.2235709788973284E-19
-1                        0.3270828204964802       35.65891472868218        1.8215504843791738E-5
-1                        0.00937576925528516      35.46511627906978        2.2235710066897947E-19
-1                        0.009375769255281607     35.077519379844965       2.223642160963562E-19
-1                        -0.3270828204964802      35.65891472868218        2.2235709788953425E-20
-1                        -0.32708282049648        36.046511627906966       1.1117854894475819E-19
-1                        -0.6635414102482436      35.85271317829458        2.2235709788951252E-20
-1                        -0.6635414102482369      35.46511627906978        1.7788567831161146E-16
-1                        -1                       36.046511627906966       6.785801166772968E-38
-1                        -1                       36.434108527131784       2.223570978895374E-28
-0.9999999999999998       0.9999999999999998       34.496124031007746       1.3707316215134319E-33
-1                        1                        34.10852713178296        1.3571600213016477E-35
-1                        0.6635414102482441       34.30232558139535        6.785908680370223E-36
-1                        0.6635414102482371       33.91472868217055        2.2769366823885607E-10
-1                        0.32708282049647913      34.496124031007746       1.7649594644980234E-25
-1                        0.32708282049647686      34.88372093023256        7.115427349611795E-24
-1                        0.009375769255286492     34.68992248062016        4.447142028972272E-16
-1                        0.0093757692552765       34.30232558139535        1.7649594644983875E-25
-1                        -0.3270828204964769      34.88372093023256        4.447141957805771E-16
-1                        -0.3270828204964771      35.27131782945737        1.7788567831439094E-16
-1                        -0.6635414102482406      35.077519379844965       1.778856832034676E-16
-1                        -0.6635414102482355      34.689922480620154       1.1117855340746276E-17
-1                        -1                       35.27131782945737        8.894283915580563E-24
-1                        -1                       35.65891472868218        6.785800106495095E-38
-1                        1                        33.720930232558146       1.1117854894475855E-30
-1.0000000000000002       1.0000000000000002       33.33333333333335        2.2235710529678773E-21
-1                        0.6635414102482406       33.52713178294574        5.562401776892452E-31
-1                        0.6635414102482406       33.13953488372094        1.1117862211414097E-21
-1                        0.3270828204964773       33.720930232558146       4.55410105844532E-6
-1                        0.3270828204964811       34.10852713178296        2.2769366823885625E-10
-1                        0.009375769255283606     33.914728682170555       7.115427132464405E-21
-1                        0.009375769255280053     33.52713178294574        4.553873364777081E-6
-1                        -0.3270828204964811      34.10852713178296        2.3837570322147263E-19
-1                        -0.3270828204964791      34.49612403100775        4.448031386197328E-16
-1                        -0.6635414102482441      34.30232558139535        1.1349115199471014E-17
-1                        -0.6635414102482371      33.91472868217055        1.4231746695210643E-19
-0.9999999999999998       -0.9999999999999998      34.496124031007746       2.2235709788951165E-17
-1.0000000000000002       -1.0000000000000002      34.88372093023256        9.78371230713862E-24
-1                        1                        32.94573643410854        2.223571052029808E-21
-1                        1                        32.55813953488373        1.7371865426704197E-31