% Model:              Cav_Hex_Unif_flux_v5.1.2 - Wall Distn.mph
% Version:            COMSOL 5.5.0.359
% Date:               May 16 2022, 16:44
% Dimension:          3
% Nodes:              2456
% Expressions:        1
% Description:        Surface
% x                       y                        z                        Color
3.1091887578916704        -4                       0.9141057645898676       0.09154076315576348
3.999999999999999         -3.999999999999999       1.3157894736842068       0.07946391673134047
4                         -4                       0                        0.09506278949921718
2.6666666666666665        -4                       0                        0.12073396179750147
2.960349857095677         -4                       2.0112046564970676       0.08391351380676415
3.999999999999999         -3.999999999999999       2.6315789473684137       0.08327040507115459
-3.0758370637793435       -4                       0.8833550143143354       0.08072012961820138
-2.666666666666668        -4                       0                        0.07407739099320139
-4                        -4                       0                        0.0772626017490629
-3.999999999999999        -3.999999999999999       1.3157894736842068       0.09057162709592866
-1.9773752169223693       -4                       1.0299452043621926       0.09780127796620507
-1.3333333333333344       -3.999999999999999       0                        0.10491041369111072
1.9189272656960077        -4                       1.2435346927680335       0.11328754053071839
1.3333333333333326        -4                       0                        0.14325174456165446
-0.6666666666666679       -4                       1.1471949848797847       0.10159041578945595
-1.7208456881689926E-15   -3.999999999999999       0                        0.11597718145730286
0.5689913898402228        -4                       1.1116586170553335       0.10663418185155656
0.9548346964183834        -4                       2.1123169603324725       0.09017539765200212
1.8374395040658127        -4                       2.6758917200519483       0.09574965675134778
2.8581227149680184        -4                       3.289473684210531        0.09825173670385463
3.999999999999999         -3.999999999999999       3.947368421052621        0.09448926709171446
-3.999999999999999        -3.999999999999999       2.6315789473684137       0.10051600251387112
-2.7487192587958145       -4                       2.0653144274501267       0.10321819221675725
-1.3730283122923872       -4                       2.0838067995287646       0.09770121705016037
-1.8573657331396822       -4                       2.9352509224546353       0.08417339060488864
-2.8599075272384535       -4                       3.355731830803621        0.1007480831876571
-3.999999999999999        -3.999999999999999       3.947368421052621        0.09091883401629945
-0.12648028973971748      -4                       2.1669050643517322       0.09361018860966334
-0.861953228196219        -4                       3.1579922234977964       0.09966393304981432
-1.7812792745967414       -4                       3.9665791990808557       0.09674160081180061
0.5750990887494919        -4                       3.36346599852021         0.1097584038067925
2.8581227149680113        -4                       4.605263157894724        0.09180080731018177
3.999999999999999         -3.999999999999999       5.263157894736827        0.06965999693156318
1.742493669930422         -4                       4.027479320740567        0.12322429171954734
-0.6110079663951211       -4                       4.43051753599315         0.11204583963751563
-2.8581227149680113       -4                       4.605263157894724        0.10119633417204062
-3.999999999999999        -3.999999999999999       5.263157894736827        0.07302402986765216
-2.8581227149680126       -4                       5.92105263157896         0.0838920221865178
-1.716245429936019        -4                       5.263157894736869        0.10290853527428218
-4                        -4                       6.578947368421037        0.07270088658639544
2.8581227149680117        -4                       5.921052631578937        0.08694371302326807
4                         -4                       6.578947368421037        0.0761874432545293
2.858627588811577         -4                       7.250002914604769        0.10233683967065656
3.999999999999999         -3.999999999999999       7.894736842105244        0.07395188349951372
1.7153511999615885        -4                       5.352932535046651        0.11040041954007711
1.7149989508427765        -4                       6.699172966367451        0.11655307725347223
0.5717463669678473        -4                       4.880753105016545        0.11460242483878517
-0.5790826768682962       -4                       5.762404755957795        0.11174787172757293
0.5716245429936002        -4                       6.1842105263158365       0.10506709551028903
-3.999999999999999        -3.999999999999999       7.894736842105244        0.0737518323004694
-2.8581227149680126       -4                       7.236842105263152        0.08998487045038472
-1.7162454299360317       -4                       6.578947368421084        0.10917727882210593
-2.8581227149680126       -4                       8.552631578947345        0.08772429086654233
-0.5737820992762012       -4                       7.078821845291261        0.11254505199521271
-4                        -4                       9.210526315789451        0.062327390889585804
0.5710584479391512        -4                       7.53404758275108         0.11877679420841358
1.7151479891718493        -4                       8.000000000000028        0.12165919622604708
2.8581227149680117        -4                       8.552631578947343        0.09617389199855232
4                         -4                       9.210526315789451        0.07495473053177863
-1.7162454299360317       -4                       7.894736842105255        0.10513606378560282
-0.5728986696775182       -4                       8.39471592158365         0.11665192724537558
-4                        -4                       10.52631578947366        0.07874564755410163
-2.858122714968013        -4                       9.86842105263156         0.08905076662603141
-1.7162454299360252       -4                       9.210526315789448        0.1067264634086989
0.5712599735804           -4                       8.84736423694834         0.12109619278971374
1.7151479891718504        -4                       9.3157894736842          0.0990612592576679
2.858122714968012         -4                       9.868421052631557        0.08410016756252991
4                         -4                       10.52631578947366        0.07072434684746919
-3.999999999999999        -3.999999999999999       11.842105263157865       0.07329368646700611
-2.8581227149680193       -4                       11.184210526315754       0.09630007266994893
-0.5727514314110698       -4                       9.710522829035872        0.12051188875834055
-1.7162454299360341       -4                       10.52631578947365        0.10455578561395074
1.7151479891718528        -4                       10.631578947368414       0.11083544596922183
-4                        -4                       13.15789473684207        0.057017465393385765
-2.8581227149680126       -4                       12.499999999999966       0.07362308093421167
2.8581227149680184        -4                       11.184210526315773       0.08847312224914912
3.999999999999999         -3.999999999999999       11.842105263157865       0.07993074429469321
0.5712894212336919        -4                       10.163157197386141       0.10635136544643027
-1.7162454299360226       -4                       11.842105263157855       0.09578614271880313
-0.5727268916999906       -4                       11.02631520834807        0.1132918345008892
1.7151479891718537        -4                       11.94736842105264        0.10531567240995278
0.5712943291759094        -4                       11.478947252195915       0.11230531284060581
2.8581227149680126        -4                       12.499999999999966       0.08206160305944143
4                         -4                       13.15789473684207        0.057230603064535535
1.7151479891718528        -4                       13.263157894736855       0.09885163266014628
-0.5727228017481423       -4                       12.342105166303629       0.10053300807123633
0.5712951471662784        -4                       12.794736822734421       0.10382112019209826
-3.999999999999999        -3.999999999999999       14.47368421052628        0.04972485930534772
-2.8581227149680117       -4                       13.81578947368418        0.056017604357804396
-1.7162454299360193       -4                       13.15789473684209        0.0768363646497492
2.8581227149680117        -4                       13.815789473684179       0.08065363367000605
3.999999999999999         -3.999999999999999       14.47368421052628        0.05160676845685921
2.8581227149680193        -4                       15.131578947368407       0.06539872313334617
4                         -4                       15.789473684210485       0.035731429957151645
1.715147989171852         -4                       14.578947368421048       0.09322229192122945
0.5712952834980057        -4                       14.110526312561035       0.10724732179604635
-0.5727221200895052       -4                       13.657894720699716       0.10414993083180557
-4                        -4                       15.789473684210485       0.038344689874845704
-2.8581227149680153       -4                       15.131578947368386       0.05725097225737919
-1.716245429936027        -4                       14.473684210526304       0.08525020504984465
-0.5727220064797319       -4                       14.973684207835925       0.09200101111561608
-1.7162454299360297       -4                       15.789473684210499       0.07185864826458846
2.8581227149680126        -4                       16.447368421052587       0.04007662644531267
4                         -4                       17.10526315789469        0.030877918454857184
-2.8581227149680126       -4                       16.447368421052587       0.048512784182656345
-4                        -4                       17.10526315789469        0.030980509827376834
2.8581227149680126        -4                       17.763157894736814       0.0348054138628187
3.999999999999999         -3.999999999999999       18.4210526315789         0.03137645591324536
0.5712953062199597        -4                       15.426315788935607       0.07576477552488042
1.7151479891718522        -4                       15.894736842105264       0.05470191717266782
-0.5727219875447684       -4                       16.289473683762136       0.061001267951537534
1.7151479891718535        -4                       17.210526315789455       0.046249729279035035
0.5712953100069527        -4                       16.74210526306823        0.054430908588194986
-1.71624542993602         -4                       17.10526315789471        0.059276773589226506
-0.5727219843889415       -4                       17.605263157820005       0.061094227613276784
-3.999999999999999        -3.999999999999999       18.4210526315789         0.030938122383540673
-2.8581227149680126       -4                       17.763157894736814       0.040686394063332854
0.571295310638118         -4                       18.05789473682715        0.060650228697078395
-1.7162454299360317       -4                       18.421052631578917       0.04733693800302922
-3.999999999999999        -3.999999999999999       19.73684210526311        0.03624481104939223
-2.8581227149680117       -4                       19.078947368421005       0.0395037478065626
2.8581227149680117        -4                       19.078947368421005       0.03263394655485904
1.7151479891718504        -4                       18.526315789473667       0.04368514651890198
3.999999999999999         -3.999999999999999       19.73684210526311        0.03109783664996621
-1.7162454299360226       -4                       19.73684210526313        0.04592297522865165
-2.858122714968013        -4                       20.39473684210523        0.032333677131528744
-4                        -4                       21.05263157894732        0.014459138455910736
-0.572721983862972        -4                       18.921052631566475       0.05330479672050532
0.5712953107433112        -4                       19.373684210523813       0.04625185342653259
-0.5727219837753097       -4                       20.236842105261065       0.03492788947209793
2.8581227149680117        -4                       20.394736842105218       0.0260963956390789
4                         -4                       21.05263157894732        0.028249808828584883
1.7151479891718522        -4                       19.842105263157862       0.04031098490384433
0.5712953107608439        -4                       20.689473684210096       0.04230386674979391
-1.7162454299360306       -4                       21.052631578947334       0.03797905897252768
-2.8581227149680153       -4                       21.710526315789423       0.020921329026244773
-4                        -4                       22.368421052631522       0.012904229875688275
-0.5727219837607017       -4                       21.55263157894701        0.037801986308231464
0.5712953107637657        -4                       22.00526315789466        0.0316513777764209
2.8581227149680153        -4                       21.7105263157894         0.02547219806976682
4                         -4                       22.368421052631522       0.02031223950652934
1.715147989171852         -4                       21.157894736842074       0.02877957947073406
-1.7162454299360297       -4                       22.368421052631536       0.02671088603253936
-2.8581227149680126       -4                       23.026315789473628       0.016572445445268293
-4                        -4                       23.68421052631573        0.021167264203243278
1.715147989171852         -4                       22.47368421052628        0.026920017383852735
2.8581227149680117        -4                       23.026315789473625       0.022354506020579087
4                         -4                       23.68421052631573        0.015472253484713393
-0.5727219837582656       -4                       22.868421052631515       0.02016229494614616
0.5712953107642518        -4                       23.32105263157893        0.02081444805540195
1.7151479891718495        -4                       23.789473684210506       0.025269682879953983
2.8581227149680117        -4                       24.34210526315784        0.019088986253139914
4                         -4                       24.999999999999943       0.021011906449976747
-1.7162454299360252       -4                       23.68421052631573        0.0167839905231224
-4                        -4                       24.999999999999943       0.017178214223821927
-2.858122714968013        -4                       24.342105263157844       0.014048894178688863
-0.5727219837578598       -4                       24.184210526315752       0.020491898706097262
-4                        -4                       26.31578947368415        0.010254171067836203
-2.8581227149680153       -4                       25.657894736842056       0.012264279972020573
-1.716245429936027        -4                       24.999999999999943       0.01960543414389509
-0.5727219837577887       -4                       25.499999999999968       0.019297522574803532
0.5712953107643335        -4                       24.636842105263145       0.019030158201598674
1.715147989171851         -4                       25.10526315789472        0.013333354992653812
2.8581227149680153        -4                       25.657894736842056       0.013698249989914738
4                         -4                       26.31578947368415        0.011668678025220957
-1.7162454299360226       -4                       26.31578947368414        0.020617160131946463
-2.85812271496801         -4                       26.97368421052626        0.008606392202962955
-4                        -4                       27.631578947368357       0.00826919414207441
1.7151479891718513        -4                       26.421052631578913       0.012501752908194289
2.858122714968009         -4                       26.97368421052626        0.014063979193281123
4                         -4                       27.631578947368357       0.01284887465765678
2.8581227149680153        -4                       28.289473684210463       0.008419332370795115
4                         -4                       28.947368421052563       0.007650042981342202
0.5712953107643477        -4                       25.95263157894736        0.011258043524548808
-0.5727219837577797       -4                       26.81578947368418        0.01355183074605948
-1.7162454299360252       -4                       27.631578947368386       0.013400606152293557
-4                        -4                       28.947368421052563       0.009071989108856244
-2.8581227149680153       -4                       28.289473684210463       0.009137771314432263
-2.8581227149680153       -4                       29.60526315789468        0.007910779553046516
-1.7162454299360288       -4                       28.947368421052577       0.009887673717353487
-0.5727219837577788       -4                       28.131578947368396       0.01023115458070566
0.5712953107643495        -4                       27.268421052631563       0.009265303275755915
1.7151479891718509        -4                       27.73684210526311        0.008121009929467196
2.8581227149680153        -4                       29.60526315789468        0.008514703869804355
4                         -4                       30.263157894736768       0.008833774638449527
1.715147989171851         -4                       29.05263157894733        0.00772566550152045
-4                        -4                       30.263157894736768       0.003966278784645415
-4                        -4                       31.578947368420977       0.008043295388011271
-2.8581227149680126       -4                       30.92105263157888        0.007707911459111261
-1.7162454299360308       -4                       30.263157894736793       0.010356341512819224
-0.5727219837577806       -4                       29.447368421052616       0.007723840408573157
0.5712953107643486        -4                       28.58421052631578        0.009254284260935376
0.5712953107643486        -4                       29.89999999999997        0.008541913526636106
2.8581227149680117        -4                       30.921052631578878       0.006826379258511023
4                         -4                       31.578947368420977       0.0022307186601749516
1.7151479891718522        -4                       30.368421052631533       0.008181067995626977
-1.7162454299360317       -4                       31.578947368420984       0.004749573453931844
1.7151479891718528        -4                       31.684210526315738       0.005428057317322904
2.8581227149680157        -4                       32.236842105263065       0.005622175721633763
4                         -4                       32.89473684210518        0.009248361292968065
-2.8581227149680126       -4                       32.23684210526307        0.005435293035340947
-4                        -4                       32.89473684210518        0.005371467016906647
-0.5727219837577788       -4                       30.763157894736814       0.007062198100547604
0.5712953107643501        -4                       31.215789473684165       0.006360101476538211
-0.572721983757777        -4                       32.078947368421005       0.00510139340697185
-1.7162454299360252       -4                       32.894736842105196       0.0030662379587612725
1.7151479891718528        -4                       32.99999999999994        0.0038757388535398504
0.5712953107643504        -4                       32.53157894736838        0.0047718585396103515
0.5712953107643501        -4                       33.84736842105258        0.0045263222917675625
2.858122714968009         -4                       33.55263157894728        0.006578129676254347
3.999999999999999         -3.999999999999999       34.210526315789394       0.008003185059523236
1.715147989171851         -4                       34.31578947368414        0.005065536774361062
2.8581227149680215        -4                       34.868421052631504       0.005352247291769144
4                         -4                       35.526315789473585       0.0035311667698031224
-0.5727219837577797       -4                       33.39473684210521        0.0042901974072221466
-3.999999999999999        -3.999999999999999       34.210526315789394       0.005742596254239546
-2.85812271496801         -4                       33.55263157894729        0.0060955577947129
-1.7162454299360288       -4                       34.2105263157894         0.0058825410461608415
-2.8581227149680215       -4                       34.868421052631504       0.006007283841894215
-4                        -4                       35.526315789473585       0.005345729852619131
1.7151479891718528        -4                       35.63157894736837        0.006473692229089695
0.5712953107643495        -4                       35.163157894736784       0.005399716334357021
-0.5727219837577797       -4                       34.710526315789416       0.005616849228723633
2.85812271496801          -4                       36.184210526315695       0.005094825110882285
4                         -4                       36.842105263157805       0.0023398607047573753
0.5712953107643506        -4                       36.478947368421          0.004372451190234095
2.858122714968012         -4                       37.4999999999999         0.002929246642030531
4                         -4                       38.15789473684202        0.0035898762599080713
1.715147989171852         -4                       36.94736842105255        0.0031009378571883075
-1.7162454299360344       -4                       35.52631578947359        0.006278438324966595
-0.5727219837577779       -4                       36.026315789473614       0.003942850408630465
-4                        -4                       36.842105263157805       0.00742835289891011
-2.85812271496801         -4                       36.184210526315695       0.008044875323366207
-2.8581227149680126       -4                       37.499999999999915       0.006488361788414832
-1.7162454299360235       -4                       36.84210526315781        0.005847253001543071
-4                        -4                       38.15789473684202        0.008476847526912459
-0.5727219837577745       -4                       37.34210526315784        0.003837541236872889
0.5712953107643506        -4                       37.794736842105216       0.0035724618152523334
2.85812271496801          -4                       38.81578947368414        0.005779836422126074
4                         -4                       39.47368421052623        0.006091978692882423
1.7151479891718493        -4                       38.26315789473678        0.005556099033716455
-1.7162454299360197       -4                       38.157894736842024       0.0018303303557958403
-4                        -4                       39.47368421052623        0.004121173323375965
-2.8581227149680073       -4                       38.815789473684134       0.003382573781108674
-0.5727219837577779       -4                       38.657894736842046       0.0038582679645897643
1.7151479891718484        -4                       39.57894736842099        0.008207568421278422
-2.8581227149680193       -4                       40.13157894736834        0.002013643829290914
-3.999999999999999        -3.999999999999999       40.78947368421043        0.004277934813501308
0.5712953107643486        -4                       39.11052631578943        0.005655886329253554
-1.7162454299360288       -4                       39.47368421052625        0.00296813095367914
-0.5727219837577806       -4                       39.97368421052625        0.004744517537323289
2.8581227149680153        -4                       40.13157894736833        0.006105944566715143
3.999999999999999         -3.999999999999999       40.78947368421043        0.002291583331835249
2.858122714968009         -4                       41.44736842105253        0.003875638860965568
4                         -4                       42.10526315789464        0.0043943205994395355
1.715147989171852         -4                       40.894736842105196       0.0054005271769355994
0.5712953107643477        -4                       40.42631578947362        0.0026015177008653126
-1.7162454299360317       -4                       40.78947368421044        0.002154794559912187
-0.5727219837577788       -4                       41.289473684210456       0.0031929350448962764
-4                        -4                       42.10526315789464        0.007684351463670182
-2.8581227149680126       -4                       41.447368421052545       0.004384652603310461
-2.8581227149680153       -4                       42.76315789473675        0.005524404639560954
2.8581227149680153        -4                       42.76315789473675        0.003983283439068663
4                         -4                       43.42105263157885        0.004786714174872374
1.7151479891718524        -4                       42.2105263157894         0.005588712954627033
-4                        -4                       43.42105263157885        0.005869139335808544
-1.716245429936027        -4                       42.10526315789465        0.003494099269685823
0.5712953107643488        -4                       41.74210526315784        0.001952027961843736
-0.5727219837577788       -4                       42.605263157894655       0.002682575937940227
0.5712953107643495        -4                       43.05789473684205        0.004419798619952361
-2.8581227149680126       -4                       44.07894736842095        0.0017928011156069857
-1.7162454299360297       -4                       43.421052631578874       0.0033456196787312272
-4                        -4                       44.736842105263044       0.004679027422183487
2.8581227149680117        -4                       44.07894736842094        0.00312237157961999
4                         -4                       44.736842105263044       0.005556595818848896
1.7151479891718506        -4                       43.52631578947361        0.0048159788826433745
1.715147989171852         -4                       44.84210526315782        0.004689814887056922
-0.5727219837577797       -4                       43.921052631578874       0.003902736852126476
0.5712953107643488        -4                       44.37368421052624        0.0027089428989443575
-0.5727219837577797       -4                       45.23684210526309        0.0033212972297669637
-4                        -4                       46.05263157894726        0.007389810919645548
-2.8581227149680126       -4                       45.394736842105154       0.004593249773407907
-1.7162454299360288       -4                       44.736842105263065       0.0037843211441960316
2.8581227149680117        -4                       45.39473684210515        0.005683071616120764
4                         -4                       46.05263157894726        0.003952169139406059
2.8581227149680153        -4                       46.71052631578936        0.003775983372013822
3.999999999999999         -3.999999999999999       47.368421052631476       0.0027627190401354755
1.7151479891718522        -4                       46.15789473684201        0.00694461933784146
0.5712953107643504        -4                       45.68947368421045        0.004112965352589048
-1.7162454299360308       -4                       46.05263157894728        0.005035501074469086
-3.999999999999999        -3.999999999999999       47.368421052631476       0.004792915945860504
-2.8581227149680153       -4                       46.71052631578936        0.007127243863371944
-0.572721983757777        -4                       46.55263157894728        0.0011739508258437196
-1.7162454299360244       -4                       47.36842105263148        0.004355967556400741
-2.8581227149680135       -4                       48.02631578947357        0.004496970640577388
-4                        -4                       48.68421052631568        0.005564279216329747
2.85812271496801          -4                       48.02631578947359        0.003244363609654289
4                         -4                       48.68421052631568        5.515677772919321E-4
1.715147989171851         -4                       47.47368421052622        0.0034887457521628404
0.5712953107643504        -4                       47.00526315789465        0.003335198906744601
-0.5727219837577753       -4                       47.86842105263149        0.004432791886874514
-1.7162454299360244       -4                       48.68421052631569        0.002984943189024944
-2.85812271496801         -4                       49.34210526315779        0.0041684733920446995
-4                        -4                       49.99999999999989        0.004357203098365371
2.85812271496801          -4                       49.34210526315779        0.0016677916599930273
4                         -4                       49.99999999999989        0.0030566531271361817
1.7151479891718493        -4                       48.78947368421043        0.002619227132479566