% Model:              Cav_Hex_Unif_flux_v5.1.2 - Wall Distn.mph
% Version:            COMSOL 5.5.0.359
% Date:               May 16 2022, 16:43
% Dimension:          3
% Nodes:              1826
% Expressions:        1
% Description:        Surface
% x                       y                        z                        Color
0.7190093876056589        -1                       49.743567143472          0
1                         -1                       50                       0
1                         -1                       49.6124031007752         0
0.6000000000000001        -1                       50                       0
0.3973804184273795        -1                       49.703978807468246       4.1750823129573754E-44
0.19999999999999996       -1                       50                       0
0.6236248903756987        -1                       49.40137789980568        3.578641982534893E-44
1                         -1                       49.2248062015504         0
1                         -1                       48.83720930232559        5.487090436933005E-65
0.6645126092583694        -1                       49.00767976279964        0
0.21895298358957144       -1                       49.39176608722758        4.1750823129573754E-44
0.36620685624197163       -1                       49.12636205546553        0
0.02269524899334824       -1                       49.68716171430425        2.922558110264532E-55
-0.1999999999999997       -1                       50                       0
-0.09836177863380091      -1                       49.39526615978301        3.5242543711175715E-55
-0.38111210693000125      -1                       49.63287709146556        6.095966112309614E-55
-0.5999999999999999       -1                       50                       4.663949916219627E-79
-0.7341292700078723       -1                       49.73016380338987        2.798369949731776E-79
-1                        -1                       50                       0
0.3387404875764728        -1                       48.81880760507406        1.344337157048662E-84
1                         -1                       48.44961240310078        3.605464148321444E-51
0.6635414102482369        -1                       48.64341085271319        2.5753342436769435E-59
1                         -1                       48.06201550387597        8.350682050929678E-46
0.6635414102482375        -1                       48.25581395348838        2.587125076866498E-50
0.3270828204964747        -1                       48.44961240310079        1.685287502756434E-60
0.013424971416534037      -1                       49.05095160054088        4.079256486489401E-77
0.009375769255285993      -1                       48.643410852713195       4.7591327020046824E-77
-0.36315940671703384      -1                       49.2172288725506         4.189402845290943E-55
-0.6914798298975102       -1                       49.40570760710693        4.175082312957499E-55
-0.3270828204964782       -1                       48.83720930232559        4.759132567570967E-77
-0.6635414102482411       -1                       49.03100775193799        1.73889309161079E-48
-1                        -1                       49.6124031007752         0
-1                        -1                       49.2248062015504         3.47778618322158E-48
0.9999999999999998        -0.9999999999999998      47.28682170542636        8.350200091448542E-42
0.6635414102482402        -1                       47.48062015503877        3.4383598132599136E-49
1                         -1                       47.674418604651166       8.357041345541339E-46
0.66354141024824          -1                       47.868217054263575       4.175322998144338E-46
0.32708282049647774       -1                       47.67441860465117        8.431143281492361E-67
0.6635414102482373        -1                       47.09302325581397        1.634735134316342E-41
0.32708282049647885       -1                       48.06201550387597        5.891625278087429E-64
-0.009375769255285604     -1                       48.25581395348838        4.9124337846304495E-60
-0.00937576925528183      -1                       47.868217054263575       3.016397429175307E-38
-0.6635414102482369       -1                       48.64341085271319        0
-0.32708282049647885      -1                       48.06201550387597        3.016397429175307E-38
-0.32708282049647464      -1                       48.44961240310079        0
-0.6635414102482375       -1                       48.25581395348838        9.712515444021976E-56
-1                        -1                       48.44961240310078        1.942503088804395E-55
-1                        -1                       48.83720930232559        3.47778618322158E-48
1                         -1                       46.89922480620155        8.350199403776579E-42
1                         -1                       46.511627906976756       3.84096330585326E-83
0.6635414102482426        -1                       46.70542635658915        4.9119425903714526E-64
0.32708282049647885       -1                       47.28682170542636        1.2563088001562776E-25
-0.00937576925528183      -1                       47.48062015503877        1.3875022062888731E-62
0.32708282049648          -1                       46.89922480620156        1.2563088001562776E-25
-0.00937576925528294      -1                       47.09302325581397        1.2563088001562776E-25
-0.66354141024824         -1                       47.868217054263575       3.016397429175226E-26
-0.32708282049647797      -1                       47.28682170542636        1.5504584425704075E-41
-0.3270828204964793       -1                       47.67441860465117        3.017875463915603E-38
-0.66354141024824         -1                       47.48062015503877        1.5504598746236407E-41
-1                        -1                       47.674418604651166       6.032794858350452E-26
-1                        -1                       48.06201550387597        6.032794858350452E-26
0.6635414102482349        -1                       46.31782945736435        1.107123252747031E-79
1                         -1                       46.12403100775194        2.2142389106545984E-79
0.9999999999999998        -0.9999999999999998      45.736434108527135       1.3173654078438686E-23
0.66354141024824          -1                       45.93023255813954        6.15591312076574E-24
0.3270828204964751        -1                       46.12403100775194        5.964403304224969E-54
0.32708282049647636       -1                       46.51162790697676        4.911942590371803E-64
-0.009375769255279165     -1                       46.705426356589165       1.9204816529266067E-77
-0.009375769255290933     -1                       46.317829457364354       8.520576148892708E-49
-0.6635414102482375       -1                       47.09302325581397        7.242370227449969E-43
-0.3270828204964764       -1                       46.51162790697676        1.478034748816482E-40
-0.3270828204964802       -1                       46.89922480620156        2.831637155691632E-70
-0.6635414102482429       -1                       46.70542635658915        1.0346243183549163E-30
-1                        -1                       46.89922480620155        2.069248636414226E-30
-0.9999999999999998       -0.9999999999999998      47.28682170542636        0
0.6635414102482429        -1                       45.54263565891474        4.447507047854185E-18
1                         -1                       45.348837209302346       8.618278369072058E-25
1                         -1                       44.96124031007753        0
0.6635414102482375        -1                       45.15503875968994        4.447500461027146E-18
0.32708282049648396       -1                       45.736434108527135       5.964403304292957E-54
0.3270828204964802        -1                       45.34883720930235        4.44751840829572E-18
-0.00937576925527872      -1                       45.93023255813954        5.964403304224969E-54
-0.009375769255273614     -1                       45.542635658914755       1.7947268573661026E-23
-0.6635414102482351       -1                       46.31782945736435        1.4780347402959059E-40
-0.3270828204964842       -1                       45.736434108527135       2.40669657159384E-4
-0.3270828204964753       -1                       46.12403100775194        1.5744743926314875E-5
-0.6635414102482402       -1                       45.93023255813954        2.40669657159384E-4
-1                        -1                       46.12403100775194        0
-1                        -1                       46.511627906976756       2.069248636414226E-30
0.6635414102482402        -1                       44.76744186046513        1.067844860692668E-31
1.0000000000000002        -1.0000000000000002      44.573643410852725       4.498498264661383E-4
1                         -1                       44.18604651162791        4.498498264661383E-4
0.6635414102482335        -1                       44.37984496124031        2.2492491323306915E-4
0.3270828204964728        -1                       44.57364341085273        1.067844860692668E-31
0.3270828204964782        -1                       44.96124031007754        1.067844860692668E-31
-0.009375769255284938     -1                       45.155038759689944       1.7947268573661026E-23
-0.009375769255284494     -1                       44.76744186046514        2.4842206149492577E-48
-0.3270828204964782       -1                       44.96124031007754        1.73889309161071E-35
-0.3270828204964802       -1                       45.34883720930235        8.520576148895466E-39
-0.6635414102482429       -1                       45.54263565891474        2.2492491323306915E-4
-0.6635414102482375       -1                       45.15503875968994        1.740371126351006E-35
-1                        -1                       45.348837209302346       1.3597521621630868E-58
-0.9999999999999998       -0.9999999999999998      45.736434108527135       1.7588323202188283E-35
0.6635414102482409        -1                       43.992248062015506       3.113250322719001E-18
1                         -1                       43.7984496124031         4.968265976030751E-49
1                         -1                       43.41085271317829        6.0327948583506295E-40
0.6635414102482367        -1                       43.6046511627907         3.1132503227190535E-18
0.32708282049647797       -1                       43.798449612403104       3.1132503227190535E-18
0.32708282049647464       -1                       44.1860465116279         2.1117266137215227E-40
-0.00937576925529382      -1                       44.379844961240316       1.4320532333444223E-56
-0.00937576925528183      -1                       43.992248062015506       2.111478200422723E-40
-0.32708282049647286      -1                       44.57364341085273        4.467626340233245E-78
-0.32708282049647464      -1                       44.18604651162791        1.256308800771872E-26
-0.6635414102482402       -1                       44.76744186046513        1.740371126351006E-35
-0.6635414102482335       -1                       44.37984496124031        2.179275225903307E-19
-1.0000000000000002       -1.0000000000000002      44.573643410852725       5.6632743113831086E-58
-1                        -1                       44.96124031007753        2.9560694805917947E-38
0.6635414102482409        -1                       43.2170542635659         3.016814937406611E-40
1                         -1                       43.02325581395349        4.232177958700311E-36
1                         -1                       42.63565891472869        4.2315746792144755E-36
0.6635414102482418        -1                       42.82945736434109        9.076531553116604E-17
0.32708282049648224       -1                       43.02325581395349        9.076531553116604E-17
0.32708282049647724       -1                       43.41085271317829        5.232482908785851E-32
-0.009375769255284938     -1                       43.6046511627907         2.093890957026912E-46
-0.009375769255280275     -1                       43.2170542635659         4.3091427336525454E-37
-0.3270828204964782       -1                       43.798449612403104       1.256308800771872E-26
-0.3270828204964773       -1                       43.41085271317829        1.5135223556276378E-41
-0.6635414102482411       -1                       43.992248062015506       2.179275351534187E-19
-0.6635414102482369       -1                       43.6046511627907         3.031177776578265E-39
-1                        -1                       43.7984496124031         1.3597521621630843E-58
-1                        -1                       44.18604651162791        4.358550451806614E-19
1                         -1                       42.24806201550388        3.5894537148516932E-31
0.6635414102482373        -1                       42.441860465116285       5.97164922323852E-42
0.9999999999999998        -0.9999999999999998      41.86046511627906        3.5894537147322606E-31
0.6635414102482333        -1                       42.05426356589147        5.232439819188595E-22
0.32708282049647114       -1                       42.248062015503876       3.662707946924853E-23
0.32708282049647974       -1                       42.635658914728694       9.076531553116604E-17
-0.009375769255277167     -1                       42.8294573643411         2.484337567048944E-48
-0.009375769255286936     -1                       42.4418604651163         3.6627078721757126E-23
-0.3270828204964824       -1                       43.02325581395349        4.381562922298554E-35
-0.32708282049647974      -1                       42.635658914728694       1.525492734865294E-29
-0.6635414102482411       -1                       43.2170542635659         1.525492658132337E-17
-0.663541410248242        -1                       42.82945736434109        1.5254926581323403E-17
-1                        -1                       43.02325581395349        3.050985316264674E-17
-1                        -1                       43.41085271317829        6.032794858350613E-39
0.9999999999999998        -0.9999999999999998      41.47286821705427        4.091580666698386E-60
0.6635414102482418        -1                       41.66666666666666        5.232439817393869E-22
0.9999999999999998        -0.9999999999999998      41.08527131782947        3.9640362314560336E-12
0.6635414102482418        -1                       41.27906976744187        1.0678448606926247E-21
0.3270828204964844        -1                       41.47286821705427        7.063514516818655E-62
0.3270828204964751        -1                       41.86046511627906        5.232439824868783E-22
-0.009375769255293378     -1                       42.05426356589147        3.662712394425314E-23
-0.00937576925527761      -1                       41.66666666666666        8.794161601094136E-36
-0.32708282049647486      -1                       41.86046511627906        1.2966473647309293E-11
-0.3270828204964713       -1                       42.24806201550388        1.79478658729734E-24
-0.6635414102482375       -1                       42.441860465116285       1.794742147780344E-24
-0.6635414102482335       -1                       42.05426356589147        1.794726857366105E-24
-1                        -1                       42.24806201550388        3.0645939674940745E-52
-1                        -1                       42.63565891472869        7.097522822900813E-32
0.663541410248236         -1                       40.89147286821706        1.9820181157280168E-12
1                         -1                       40.69767441860465        3.964036229320344E-12
1                         -1                       40.310077519379846       3.589453714746748E-31
0.66354141024824          -1                       40.50387596899225        1.7947330132792813E-31
0.6635414102482369        -1                       40.11627906976744        5.400447166726029E-8
0.32708282049647636       -1                       40.69767441860465        1.0465052542655424E-36
0.3270828204964773        -1                       41.08527131782947        2.0457903333491923E-44
-0.0093757692552765       -1                       41.279069767441875       9.076531553116563E-15
-0.009375769255288269     -1                       40.891472868217065       9.076531553116563E-15
-0.009375769255283828     -1                       40.503875968992254       4.3091391880849E-37
-0.32708282049648485      -1                       41.47286821705427        1.2966473647309293E-11
-0.3270828204964773       -1                       41.08527131782947        9.076531553116818E-15
-0.6635414102482429       -1                       41.66666666666666        1.2966473647309293E-11
-0.663541410248242        -1                       41.27906976744187        7.474914024848746E-32
-0.9999999999999998       -0.9999999999999998      41.47286821705427        4.109814699657367E-45
-0.9999999999999998       -0.9999999999999998      41.86046511627906        1.7041458759663592E-47
1                         -1                       39.922480620155035       1.448483869784331E-42
1                         -1                       39.53488372093023        5.292438223391548E-11
0.6635414102482411        -1                       39.72868217054263        5.4030933858377244E-8
0.6635414102482369        -1                       39.34108527131784        2.646219111696742E-11
0.3270828204964782        -1                       39.922480620155035       5.400447166726029E-8
0.3270828204964759        -1                       40.31007751937985        1.2564134506793833E-32
-0.00937576925528627      -1                       40.116279069767444       1.4780347402959005E-38
-0.009375769255280943     -1                       39.72868217054264        1.2966473647314618E-13
-0.32708282049647597      -1                       40.310077519379846       5.4004516142265227E-11
-0.3270828204964764       -1                       40.69767441860465        4.4475004610527763E-17
-0.663541410248236        -1                       40.89147286821706        2.564644258234358E-28
-0.6635414102482402       -1                       40.50387596899225        4.447500461027138E-17
-0.6635414102482369       -1                       40.11627906976744        5.400447166726137E-11
-1                        -1                       40.69767441860465        0
-0.9999999999999998       -0.9999999999999998      41.08527131782947        4.091580666698255E-45
1                         -1                       39.14728682170542        1.935988055684253E-23
0.6635414102482409        -1                       38.95348837209302        9.679941756456005E-24
1                         -1                       38.75968992248062        4.222956400845417E-37
0.6635414102482402        -1                       38.565891472868216       1.2966473647309375E-14
0.32708282049647813       -1                       39.14728682170542        8.794161601512302E-34
0.3270828204964782        -1                       39.53488372093024        5.269066896118689E-26
-0.009375769255284272     -1                       39.34108527131784        3.662707872175752E-28
-0.009375769255280943     -1                       38.95348837209303        9.076531553116609E-17
-0.3270828204964782       -1                       39.53488372093024        5.401743814090777E-10
-0.3270828204964782       -1                       39.922480620155035       5.4134136403733714E-11
-0.6635414102482411       -1                       39.72868217054263        7.475093510097248E-25
-0.6635414102482369       -1                       39.34108527131784        5.400447166726047E-10
-1                        -1                       39.922480620155035       1.4949828049696846E-24
-1                        -1                       40.310077519379846       0
1                         -1                       38.372093023255815       4.222956400845417E-37
1                         -1                       37.984496124031          1.1557702676325655E-54
0.663541410248236         -1                       38.178294573643406       1.2966473647309373E-14
0.6635414102482411        -1                       37.7906976744186         9.076531553116954E-16
0.32708282049647647       -1                       38.372093023255815       1.2966473647309373E-14
0.3270828204964799        -1                       38.759689922480625       1.478914156456026E-30
-0.00937576925528183      -1                       38.56589147286822        1.8523533781870723E-19
-0.009375769255288269     -1                       38.17829457364341        2.1792752259033405E-26
-0.3270828204964822       -1                       38.759689922480625       9.09505508689848E-17
-0.3270828204964773       -1                       39.14728682170542        5.400448074379203E-10
-0.6635414102482411       -1                       38.95348837209302        7.474914024848364E-21
-0.66354141024824         -1                       38.565891472868216       6.557577645279011E-6
-1                        -1                       39.14728682170542        1.4034121686775485E-52
-1                        -1                       39.53488372093023        1.5998475865708806E-82
1.0000000000000002        -1.0000000000000002      37.5968992248062         7.327520887525087E-29
1                         -1                       37.2093023255814         2.864106466932197E-41
0.6635414102482411        -1                       37.4031007751938         2.646219111695825E-12
0.6635414102482375        -1                       37.01550387596899        2.179293174389312E-28
0.3270828204964826        -1                       37.59689922480621        2.6471267648511365E-12
0.32708282049647686       -1                       37.984496124031          9.076531553116591E-16
-0.009375769255279387     -1                       37.790697674418595       2.1793118529820625E-26
-0.009375769255277834     -1                       37.403100775193806       2.5638955401656507E-31
-0.32708282049647464      -1                       38.372093023255815       6.557577645279189E-6
-0.32708282049647686      -1                       37.984496124031          3.780313016708276E-12
-0.663541410248236        -1                       38.178294573643406       6.55761544840917E-6
-0.6635414102482411       -1                       37.7906976744186         3.7803130176159075E-12
-1                        -1                       38.372093023255815       7.560626033416487E-11
-1                        -1                       38.75968992248062        1.4949828049696728E-20
1                         -1                       36.82170542635659        3.2732645646085057E-41
1                         -1                       36.434108527131784       8.618278369072197E-33
0.6635414102482402        -1                       36.627906976744185       6.105604937039641E-33
0.6635414102482364        -1                       36.240310077519375       5.035115103296253E-33
0.3270828204964778        -1                       36.82170542635659        1.8523533781870645E-17
0.32708282049647824       -1                       37.2093023255814         2.6462376352296062E-12
-0.009375769255284716     -1                       37.015503875968996       1.85235337818709E-17
-0.00937576925528294      -1                       36.62790697674419        1.8523533781945243E-13
-0.3270828204964824       -1                       37.59689922480621        3.7803130176159075E-12
-0.32708282049647797      -1                       37.2093023255814         2.5638955319315684E-31
-0.6635414102482411       -1                       37.4031007751938         1.1021320748420758E-7
-0.6635414102482373       -1                       37.01550387596899        1.574474392631494E-7
-1.0000000000000002       -1.0000000000000002      37.5968992248062         2.2042641496841336E-7
-1                        -1                       37.984496124031          7.560626033416487E-11
1                         -1                       36.046511627906966       4.091581148072613E-43
1                         -1                       35.65891472868218        7.325415744355051E-29
0.6635414102482436        -1                       35.85271317829458        3.662707872177818E-29
0.6635414102482369        -1                       35.46511627906978        1.2563454272350192E-24
0.32708282049648          -1                       36.046511627906966       1.852353378187048E-13
0.3270828204964762        -1                       36.434108527131784       1.852353378187048E-13
-0.009375769255286492     -1                       36.240310077519375       1.852353378187048E-13
-0.009375769255275834     -1                       35.85271317829458        2.1792752259032985E-17
-0.3270828204964762       -1                       36.434108527131784       1.8523845106977512E-13
-0.32708282049647774      -1                       36.82170542635659        1.8523533781945243E-13
-0.6635414102482402       -1                       36.627906976744185       6.557577645278978E-4
-0.6635414102482364       -1                       36.240310077519375       3.1132869497977244E-18
-1                        -1                       36.82170542635659        0.0013118304239343218
-1                        -1                       37.2093023255814         5.353212934947121E-7
1                         -1                       35.27131782945737        2.5126176003126443E-24
0.6635414102482406        -1                       35.077519379844965       1.3252364385001767E-24
1.0000000000000002        -1.0000000000000002      34.88372093023256        8.625603789784793E-29
0.6635414102482355        -1                       34.689922480620154       1.5744743926314974E-8
0.3270828204964771        -1                       35.27131782945737        6.522331711457367E-26
0.3270828204964802        -1                       35.65891472868218        2.1792752259034464E-17
-0.00937576925528516      -1                       35.46511627906978        2.1792752259034464E-17
-0.009375769255281607     -1                       35.077519379844965       4.447500461027126E-16
-0.3270828204964802       -1                       35.65891472868218        8.794161812277286E-28
-0.32708282049647996      -1                       36.046511627906966       3.113250322719003E-18
-0.6635414102482436       -1                       35.85271317829458        3.6627078736537533E-23
-0.6635414102482369       -1                       35.46511627906978        6.353950118483246E-13
-1                        -1                       36.046511627906966       7.325415747307507E-23
-1                        -1                       36.434108527131784       0.0013115155290557956
0.9999999999999998        -0.9999999999999998      34.496124031007746       3.148948785262995E-8
1                         -1                       34.10852713178296        3.5909486975371646E-22
0.6635414102482441        -1                       34.30232558139535        1.574474392650021E-8
0.6635414102482371        -1                       33.91472868217055        1.85253879307231E-15
0.3270828204964791        -1                       34.49612403100775        1.8614517024924253E-13
0.3270828204964769        -1                       34.88372093023256        6.888454707764002E-26
-0.009375769255286492     -1                       34.68992248062016        4.447500461027128E-16
-0.0093757692552765       -1                       34.30232558139535        9.262676724001114E-12
-0.3270828204964771       -1                       35.27131782945737        3.7803131075616173E-17
-0.32708282049647686      -1                       34.88372093023256        4.491975465728143E-14
-0.6635414102482406       -1                       35.077519379844965       4.451281453966793E-14
-0.6635414102482355       -1                       34.689922480620154       4.4475004610271064E-14
-1                        -1                       35.27131782945737        1.2707144310329577E-12
-1                        -1                       35.65891472868218        1.2707144174363135E-12
1                         -1                       33.720930232558146       3.704707115468983E-15
1.0000000000000002        -1.0000000000000002      33.33333333333335        4.794405496987365E-19
0.6635414102482406        -1                       33.52713178294574        1.8523535307368458E-15
0.6635414102482404        -1                       33.13953488372094        2.3989997804772396E-19
0.3270828204964773        -1                       33.720930232558146       1.5254996853496981E-22
0.3270828204964811        -1                       34.10852713178296        1.8614535548458034E-13
-0.009375769255283606     -1                       33.914728682170555       6.3535739434676885E-22
-0.009375769255279831     -1                       33.52713178294574        7.654391780306307E-27
-0.32708282049648135      -1                       34.10852713178296        9.076534203084234E-12
-0.32708282049647913      -1                       34.496124031007746       9.076534199335626E-12
-0.6635414102482441       -1                       34.30232558139535        1.574474392631753E-5
-0.6635414102482373       -1                       33.91472868217055        3.1163672357496307E-21
-0.9999999999999998       -0.9999999999999998      34.496124031007746       3.148948785262977E-5
-1.0000000000000002       -1.0000000000000002      34.88372093023256        1.3596644266568796E-20
1                         -1                       32.94573643410854        4.797998001687413E-19
1                         -1                       32.55813953488373        3.477799314214383E-38
0.6635414102482373        -1                       32.75193798449614        7.646951306819959E-20