% Model:              Cav_Hex_Unif_flux_v5.1.2 - Wall Distn.mph
% Version:            COMSOL 5.5.0.359
% Date:               May 16 2022, 16:43
% Dimension:          3
% Nodes:              2312
% Expressions:        1
% Description:        Surface
% x                       y                        z                        Color
-1.5331042872139844       -2                       0.46695214314432804      0.02179960716809494
-1.3333333333333328       -2                       0                        0.02513449880896725
-2                        -2                       0                        0.01405829149658747
1.5467906581302688        -2                       0.48436023573739106      0.02352632419783442
2                         -2                       0.6993006993006993       0.01820556630724048
2                         -2                       0                        0.028797996580057186
1.3333333333333333        -1.9999999999999996      0                        0.030237348814020903
-2                        -2                       0.6993006993006993       0.033933738859556056
-0.9854950363904202       -2                       0.5398456058460233       0.03687939373859487
-0.6666666666666664       -1.9999999999999996      0                        0.03731424421074648
-1.3650501983379588       -2                       1.076562869496256        0.031118722866981613
-0.3333333333333335       -2                       0.5972399859632106       0.03008755540764572
-6.938893903907228E-18    -1.9999999999999996      0                        0.026039508363683694
0.27461884339375864       -2                       0.6287052323405429       0.02323903746453669
0.666666666666667         -2                       0                        0.03371863418102036
-2                        -2                       1.3986013986013985       0.042975788865942055
-1.4270887945533663       -2                       1.7778075800092552       0.03577547849394725
0.9387819134775076        -2                       0.655560393584631        0.031257652505643614
1.4618381261501157        -2                       1.0669401072700868       0.0324383322893809
2                         -2                       1.3986013986013985       0.023821918269306328
-0.681482399457245        -2                       1.0983186364724062       0.0248083243893588
-0.07957332045228149      -2                       1.1377343548604368       0.021489445296724512
-0.931162528193509        -2                       1.550072364075461        0.020446512866709753
0.8925878367072754        -2                       1.4155661681446052       0.042861130728573206
0.44158840320331505       -2                       1.0634696305705904       0.023252141220047585
-2                        -2                       2.0979020979020975       0.04276713010010028
-1.3928683485856423       -2                       2.447552447552442        0.03882151582790528
-0.8734516922030858       -2                       2.0961543024278773       0.029148256927243488
1.3928683485856417        -2                       1.7482517482517392       0.0383404341151161
2                         -2                       2.0979020979020975       0.03668786162324725
1.3928683485856423        -2                       2.447552447552442        0.0368001912851932
2                         -2                       2.797202797202796        0.0386629467425871
-0.4375143654547813       -2                       1.6628349329323444       0.025056811233129795
0.8322414176117602        -2                       2.1272477521626416       0.03635827536450439
0.24325862024599454       -2                       1.7704364526325733       0.03721503790747329
-0.3176584040305732       -2                       2.3132180627144616       0.03876620474446163
0.2674700537808138        -2                       2.5620368233436053       0.03229535598546581
1.392868348585642         -2                       3.1468531468531404       0.04053027070737992
0.8043952977651945        -2                       2.819642873050859        0.029262513622307886
-2                        -2                       2.797202797202796        0.029674480086778126
2                         -2                       3.4965034965034967       0.03482339007910667
-0.2707318601416855       -2                       3.029837816257208        0.031025434857904405
-0.8349811804106952       -2                       2.7580080486931893       0.03064474587528887
-2                        -2                       3.4965034965034967       0.03188689520516753
-1.392868348585642        -2                       3.1468531468531404       0.035568712869242326
0.27122003005021833       -2                       3.276467906589031        0.026254489347170812
-0.7857366971712832       -2                       3.4965034965034727       0.03654943300457935
-0.23968849443060503      -2                       3.761717135288639        0.03806622686565695
1.3928683485856421        -2                       3.8461538461538325       0.03317355198451571
1.9999999999999996        -1.9999999999999996      4.195804195804195        0.02252294948232783
0.7943106840168563        -2                       3.5083570844889946       0.030204671059474178
0.785736697171282         -2                       4.195804195804175        0.029787530623483254
-0.7857366971712825       -2                       4.195804195804175        0.03774849219599103
-1.3928683485856421       -2                       3.8461538461538325       0.04084140405598106
-1.9999999999999996       -1.9999999999999996      4.195804195804195        0.03539311368263614
-1.392868348585639        -2                       4.545454545454531        0.03650741336613581
-1.9999999999999996       -1.9999999999999996      4.895104895104893        0.024235728447917618
1.3928683485856386        -2                       4.545454545454531        0.03395674614476735
1.9999999999999996        -1.9999999999999996      4.895104895104893        0.020100586206591525
0.27310714516346263       -2                       3.9785851222218556       0.03225444379594618
-0.23876993251597156      -2                       4.461451690380258        0.033564528349550406
0.785736697171279         -2                       4.895104895104884        0.04368088111434775
-2                        -2                       5.594405594405594        0.034112744864472154
-1.3928683485856421       -2                       5.24475524475524         0.03376011220599682
-0.7857366971712794       -2                       4.895104895104884        0.03542174390005591
0.27362248289541796       -2                       4.678460517942906        0.03267238124387913
-0.23861683886353321      -2                       5.160824698979444        0.03452190374229371
1.3928683485856421        -2                       5.24475524475524         0.033545287224245206
2                         -2                       5.594405594405594        0.02211554529119274
-1.392868348585642        -2                       5.944055944055942        0.03668392795132302
-2                        -2                       6.2937062937062915       0.030261213204940504
1.3928683485856423        -2                       5.944055944055942        0.02634224428797964
2                         -2                       6.2937062937062915       0.018117763595295166
0.7857366971712824        -2                       5.594405594405584        0.0376983342741735
0.27454112924598817       -2                       5.378992505166896        0.03574566931662128
-0.785736697171282        -2                       5.5944055944055835       0.03136649414770174
-0.23859132325479493      -2                       5.8601374498298835       0.03173988097051806
0.2785736697171285        -2                       6.083916083916064        0.02662596669622062
0.7857366971712844        -2                       6.293706293706281        0.030676162824920656
0.27857366971712877       -2                       6.7832167832167665       0.032116173606144584
-0.23858707065333595      -2                       6.559440157722224        0.03967053856780456
-0.7857366971712842       -2                       6.293706293706281        0.04233113657246242
-1.3928683485856403       -2                       6.6433566433566345       0.029536518093436118
-2                        -2                       6.9930069930069925       0.02063119747959502
1.3928683485856403        -2                       6.6433566433566345       0.025000243104359204
2                         -2                       6.9930069930069925       0.02761701465841
0.7857366971712776        -2                       6.993006993006973        0.030718291081454855
1.39286834858564          -2                       7.342657342657343        0.029298088260652486
2                         -2                       7.692307692307692        0.03060100403122741
0.27857366971712816       -2                       7.4825174825174585       0.030088174788992048
-2                        -2                       7.692307692307692        0.02229924186161496
-1.39286834858564         -2                       7.342657342657343        0.026027083829379197
-0.23858636188642857      -2                       7.258741191788188        0.03261238628703792
-0.7857366971712776       -2                       6.993006993006973        0.040856545538651964
-1.9999999999999991       -1.9999999999999991      8.391608391608388        0.012163725216021925
-1.392868348585643        -2                       8.041958041958031        0.01929506061251578
-0.7857366971712848       -2                       7.6923076923076925       0.02997797787853418
1.392868348585643         -2                       8.041958041958031        0.019559380607564448
1.9999999999999991        -1.9999999999999991      8.391608391608388        0.02010215217861946
0.7857366971712844        -2                       7.692307692307683        0.02245617524779586
-0.7857366971712798       -2                       8.391608391608374        0.021147770640046536
-1.3928683485856377       -2                       8.741258741258735        0.015533874247277984
-2.0000000000000004       -2.0000000000000004      9.09090909090909         0.010981809729038484
2.0000000000000004        -2.0000000000000004      9.09090909090909         0.018211105230562342
1.39286834858564          -2                       9.440559440559444        0.016679948150974965
2.0000000000000004        -2.0000000000000004      9.79020979020979         0.01783123459116671
-0.23858624375860857      -2                       7.958041946883093        0.023050317721731
-0.23858622407063823      -2                       8.657342655482836        0.019829675667377585
0.27857366971712816       -2                       8.181818181818157        0.021364292973143767
1.3928683485856377        -2                       8.741258741258735        0.016971754031934634
0.7857366971712799        -2                       8.391608391608374        0.01564288919466315
0.27857366971712905       -2                       8.881118881118866        0.019231338510675322
0.7857366971712773        -2                       9.090909090909081        0.01764579510502291
-0.7857366971712776       -2                       9.090909090909083        0.020204134907115038
-0.23858622078931105      -2                       9.356643356333382        0.01657462666131598
1.3928683485856421        -2                       10.139860139860135       0.018129115801372938
1.9999999999999996        -1.9999999999999996      10.48951048951049        0.011597205249223828
-2.0000000000000004       -2.0000000000000004      9.79020979020979         0.008697566052015326
-1.3928683485856403       -2                       9.440559440559444        0.012948414573367477
-0.7857366971712825       -2                       9.790209790209781        0.012280455433635063
-1.3928683485856417       -2                       10.139860139860135       0.009453777729987926
-1.9999999999999996       -1.9999999999999996      10.48951048951049        0.0058403404049361856
0.2785736697171268        -2                       9.580419580419564        0.019951868870598802
0.7857366971712826        -2                       9.790209790209781        0.018603451990243547
-0.23858622024242493      -2                       10.05594405589238        0.01307705767990839
-0.7857366971712834       -2                       10.489510489510485       0.01567328831861788
-0.2385862201512765       -2                       10.755244755236133       0.010706774655641632
0.2785736697171277        -2                       10.27972027972027        0.016501107983335473
0.27857366971712816       -2                       10.979020979020959       0.012674766753810934
0.7857366971712834        -2                       10.48951048951048        0.014994336265278305
1.3928683485856412        -2                       10.839160839160833       0.00844296583830628
2                         -2                       11.188811188811187       0.005495649434823627
0.7857366971712816        -2                       11.188811188811176       0.00908894205501916
-2                        -2                       11.188811188811187       0.014376375869960897
-1.3928683485856421       -2                       10.839160839160833       0.015769484788139762
-1.3928683485856417       -2                       11.538461538461533       0.013402634041560486
-2                        -2                       11.888111888111883       0.009586212666460224
1.3928683485856412        -2                       11.538461538461533       0.008764495486978174
2                         -2                       11.888111888111883       0.008050056478236547
-0.785736697171282        -2                       11.188811188811176       0.011865346804458084
1.3928683485856395        -2                       12.23776223776223        0.009894382606298617
2                         -2                       12.587412587412583       0.008138873868603617
-0.2385862201360851       -2                       11.454545454543997       0.008701311688263762
0.27857366971712816       -2                       11.678321678321657       0.009356863877902993
0.7857366971712825        -2                       11.88811188811188        0.010016821423100966
-2                        -2                       12.587412587412583       0.008021925191602391
-1.3928683485856403       -2                       12.237762237762222       0.005847884220802826
-0.7857366971712844       -2                       11.88811188811188        0.006391652057061554
-0.23858622013355202      -2                       12.153846153845887       0.0073245104230197184
0.27857366971712816       -2                       12.377622377622355       0.012237399066330033
0.7857366971712816        -2                       12.587412587412572       0.014168907389435284
-1.3928683485856403       -2                       12.937062937062926       0.00698436140168272
-0.7857366971712798       -2                       12.587412587412572       0.005509996615319596
-0.23858622013313013      -2                       12.853146853146793       0.006489604300791395
1.3928683485856395        -2                       12.937062937062926       0.007572527752135642
2                         -2                       13.286713286713281       0.002394166707742628
-2                        -2                       13.286713286713281       0.006866416657193025
0.27857366971712816       -2                       13.076923076923059       0.010041547738633418
0.7857366971712808        -2                       13.286713286713269       0.008365483315822774
-0.7857366971712816       -2                       13.286713286713276       0.007989746544470419
-1.3928683485856423       -2                       13.636363636363631       0.009376380354901452
-2                        -2                       13.986013986013985       0.009606300876996902
-0.2385862201330613       -2                       13.552447552447521       0.006117932342753489
1.3928683485856417        -2                       13.636363636363631       0.006241732609936628
2                         -2                       13.986013986013985       0.004537317469734859
1.392868348585643         -2                       14.335664335664323       0.004794222925180647
2                         -2                       14.68531468531468        0.005292159015525002
0.2785736697171273        -2                       13.77622377622375        0.003558985082741401
0.7857366971712842        -2                       13.986013986013967       0.0072237614476961184
-0.7857366971712847       -2                       13.986013986013967       0.009409758920832026
-1.3928683485856435       -2                       14.335664335664323       0.009643225909518416
-2                        -2                       14.68531468531468        0.007449316117769468
-0.7857366971712829       -2                       14.68531468531466        0.006304804749114435
-0.2385862201330489       -2                       14.25174825174822        0.007240841030169119
0.2785736697171286        -2                       14.475524475524448       0.006789872888859921
0.7857366971712815        -2                       14.68531468531466        0.008208471371330829
1.3928683485856395        -2                       15.034965034965026       0.004981690149364853
2                         -2                       15.38461538461538        0.005772974402596127
-2                        -2                       15.38461538461538        0.00537426246591334
-2                        -2                       16.08391608391608        0.005725063322917531
-1.392868348585639        -2                       15.734265734265723       0.005350438092598223
0.785736697171279         -2                       15.384615384615373       0.002893737759705649
1.3928683485856386        -2                       15.734265734265723       0.004164010532109867
2                         -2                       16.08391608391608        0.005320416259724638
-1.392868348585639        -2                       15.034965034965019       0.0058327471197002516
-0.785736697171278        -2                       15.384615384615365       0.003448276686080975
-0.23858622013304487      -2                       14.951048951048918       0.0036934098748056155
0.27857366971712955       -2                       15.174825174825147       0.003309499853130508
-0.23858622013304442      -2                       15.650349650349632       0.001387367128161966
0.2785736697171273        -2                       15.87412587412586        0.0031171099817242057
1.3928683485856395        -2                       16.433566433566426       0.006470080923139464
2                         -2                       16.783216783216776       0.007952971719517863
0.7857366971712779        -2                       16.083916083916073       0.0036644716790076395
-0.7857366971712785       -2                       16.083916083916073       0.0015335939920085872
-1.3928683485856403       -2                       16.433566433566433       0.004172892626999343
-2                        -2                       16.783216783216776       0.00603969268699694
-1.3928683485856421       -2                       17.13286713286713        0.006985958191462365
-2                        -2                       17.482517482517476       0.004324344472568238
-0.23858622013304576      -2                       16.349650349650336       0.002535491726768052
0.2785736697171268        -2                       16.57342657342656        0.004403753023484653
-0.7857366971712829       -2                       16.783216783216776       0.0038853735986839172
-0.23858622013304753      -2                       17.048951048951032       0.004055365557070346
-0.7857366971712842       -2                       17.482517482517473       0.004641557042493413
-1.3928683485856435       -2                       17.832167832167823       0.004122092345984527
-2                        -2                       18.181818181818173       0.001701113683506127
2                         -2                       17.482517482517476       0.0030942201097908764
1.392868348585643         -2                       17.832167832167823       0.003308145440255624
2                         -2                       18.181818181818173       0.002347390560630774
1.3928683485856412        -2                       17.13286713286713        0.005524256600632161
0.7857366971712824        -2                       16.783216783216776       0.0027200621026657983
0.7857366971712841        -2                       17.482517482517476       0.0034316132014508595
0.2785736697171273        -2                       17.272727272727263       0.0036910954583670684
-0.2385862201330471       -2                       17.748251748251732       0.0027948151063537535
0.2785736697171286        -2                       17.972027972027956       0.0020945494804601905
1.3928683485856412        -2                       18.53146853146852        0.004769474883798835
0.7857366971712842        -2                       18.181818181818166       0.004773977827129611
-0.7857366971712834       -2                       18.181818181818166       0.0018917065470624725
2                         -2                       18.881118881118876       0.0040695190658784994
-1.3928683485856403       -2                       18.53146853146852        0.0032243291790363467
-2                        -2                       18.881118881118876       0.0019611160983434117
0.27857366971712993       -2                       18.671328671328652       0.0025676210870516857
-0.23858622013304484      -2                       18.44755244755242        0.0011365208509201035
-0.7857366971712798       -2                       18.881118881118866       0.0023336196927702473
1.3928683485856386        -2                       19.23076923076922        0.0045290898723576
2                         -2                       19.580419580419576       0.004601939517490185
0.7857366971712816        -2                       18.881118881118866       0.004932718778892103
-1.392868348585639        -2                       19.23076923076922        0.004265445747600191
-0.2385862201330453       -2                       19.146853146853125       0.0026823441282888584
-0.7857366971712794       -2                       19.580419580419573       0.003838908478956926
-2                        -2                       19.580419580419576       0.004490257441054091
1.3928683485856417        -2                       19.930069930069926       0.002910517986134608
2                         -2                       20.279720279720273       0.003404281779190187
0.7857366971712789        -2                       19.580419580419573       0.0016242029856805061
0.27857366971712816       -2                       19.370629370629352       0.0027436913939424094
0.78573669717128          -2                       20.27972027972026        0.0019186502588521613
1.3928683485856386        -2                       20.629370629370626       0.0020485314394508482
2                         -2                       20.979020979020977       5.240980779279417E-4
-2                        -2                       20.279720279720273       0.004778892334779238
-1.3928683485856421       -2                       19.930069930069926       0.004155822807881887
0.2785736697171268        -2                       20.069930069930052       0.0014649771794875332
-0.23858622013304487      -2                       19.846153846153825       0.00377225879368439
-0.7857366971712808       -2                       20.27972027972026        0.0020434029936362836
-1.3928683485856386       -2                       20.629370629370626       0.0022940114778859295
-0.785736697171282        -2                       20.97902097902097        0.0020673108339910816
-2                        -2                       20.979020979020977       0.0017848384254844335
0.7857366971712799        -2                       20.97902097902098        0.002746077330950968
-0.23858622013304576      -2                       20.54545454545453        0.002184613965848616
0.27857366971712816       -2                       20.769230769230756       0.0017225710652024335
-0.2385862201330462       -2                       21.244755244755233       0.0025342256790836398
-2                        -2                       21.678321678321677       6.490499976024767E-4
-1.3928683485856421       -2                       21.328671328671323       4.0922204594848617E-4
-0.7857366971712816       -2                       21.678321678321673       0.001791583779645574
1.3928683485856412        -2                       21.328671328671323       8.070847141332377E-4
2                         -2                       21.678321678321677       0.0010560550052716897
0.2785736697171268        -2                       21.468531468531456       0.0010358472586846047
0.7857366971712824        -2                       21.67832167832167        8.697977850098382E-4
1.39286834858564          -2                       22.02797202797202        0.0014109438531144907
-0.2385862201330471       -2                       21.944055944055933       0.0012434127314952619
-1.3928683485856403       -2                       22.02797202797202        0.0011178967809984978
-0.7857366971712834       -2                       22.37762237762237        0.0011213451805513008
-2                        -2                       22.377622377622373       9.915485274510822E-4
0.27857366971712816       -2                       22.167832167832145       0.0014284437818877747
0.7857366971712834        -2                       22.37762237762237        0.0022790302960400952
2                         -2                       22.377622377622373       0.0011595705628484143
1.392868348585643         -2                       22.72727272727272        0.002467839482572684
2                         -2                       23.07692307692307        6.649425152890554E-6
-0.23858622013304578      -2                       22.643356643356622       0.0016116220554962238
0.27857366971712816       -2                       22.86713286713285        0.0015086363478568014
-0.7857366971712816       -2                       23.07692307692306        1.5646640772585413E-4
-2                        -2                       23.07692307692307        0.0018687469677669231
-1.3928683485856435       -2                       22.72727272727272        0.0010877861673210519
-1.392868348585639        -2                       23.42657342657342        0.0010580843409891032
-2                        -2                       23.776223776223766       9.59283044058495E-4
-0.2385862201330462       -2                       23.342657342657326       5.344698833320432E-4
0.7857366971712803        -2                       23.076923076923066       0.0028704627083126696
0.2785736697171287        -2                       23.566433566433545       1.5531641712866043E-4
0.7857366971712823        -2                       23.77622377622377        0.0013839137397538292
1.3928683485856395        -2                       23.426573426573427       0.002254543385669177
2                         -2                       23.776223776223766       2.1021808357356295E-4
1.3928683485856412        -2                       24.125874125874113       8.116647428952772E-4
2                         -2                       24.47552447552447        0.0017629223764768977
-0.7857366971712824       -2                       23.776223776223766       0.0011346957810109098
-0.23858622013304576      -2                       24.041958041958022       8.084938424560388E-5
-2                        -2                       24.47552447552447        1.5128395276572257E-4
-1.3928683485856421       -2                       24.125874125874113       0.0020481801153784253
-2.0000000000000004       -2.0000000000000004      25.174825174825166       8.375411584846423E-4
-1.3928683485856403       -2                       24.825174825174816       0.0013185861502800435
-0.7857366971712816       -2                       24.475524475524463       0.0016268522746318767
0.27857366971712816       -2                       24.265734265734256       0.0016533473063613255
-0.2385862201330471       -2                       24.741258741258726       0.0019076095086913887
0.7857366971712825        -2                       24.47552447552446        0.0011858895256084115
1.39286834858564          -2                       24.825174825174813       0.001478479189600125
2.0000000000000004        -2.0000000000000004      25.174825174825166       0.0032773002901752414
-1.3928683485856435       -2                       25.52447552447551        8.685632194429254E-4
-2                        -2                       25.87412587412586        1.1389576560634679E-4
-0.7857366971712834       -2                       25.174825174825166       0.0012758311513059704
-0.23858622013304576      -2                       25.44055944055942        0.0027162971599282034
0.27857366971712816       -2                       24.96503496503495        0.0035730505575458558
0.7857366971712817        -2                       25.174825174825173       0.0015885928930165956
0.27857366971712816       -2                       25.664335664335642       0.0013473449063530444
1.3928683485856435        -2                       25.52447552447551        0.00233187010830212
2                         -2                       25.87412587412586        0.0019104140594619842
-0.23858622013304576      -2                       26.139860139860126       8.874715588403689E-4
-0.7857366971712829       -2                       25.874125874125852       0.001954591656363825
-1.392868348585639        -2                       26.223776223776206       0.002220946255980984
-2.0000000000000004       -2.0000000000000004      26.573426573426566       0.001324667273260469