% Model:              Cav_Hex_Unif_flux_v5.1.2 - Wall Distn.mph
% Version:            COMSOL 5.5.0.359
% Date:               May 16 2022, 16:43
% Dimension:          3
% Nodes:              2312
% Expressions:        1
% Description:        Surface
% x                       y                        z                        Color
-1.5331042872139844       -2                       0.46695214314432804      0.01889862288263642
-1.3333333333333328       -2                       0                        0.023271668106526363
-2                        -2                       0                        0.012299809951175883
1.5467906581302688        -2                       0.48436023573739106      0.0198437578034965
2                         -2                       0.6993006993006993       0.01519959170914314
2                         -2                       0                        0.024912215458003904
1.3333333333333333        -1.9999999999999996      0                        0.02378072000757325
-2                        -2                       0.6993006993006993       0.027546238485198785
-0.9854950363904202       -2                       0.5398456058460233       0.03215203306285961
-0.6666666666666664       -1.9999999999999996      0                        0.031665512926701604
-1.3650501983379588       -2                       1.076562869496256        0.023895552945209498
-0.3333333333333335       -2                       0.5972399859632106       0.02493167330588965
-6.938893903907228E-18    -1.9999999999999996      0                        0.020937316159991854
0.27461884339375864       -2                       0.6287052323405429       0.021069021376409664
0.666666666666667         -2                       0                        0.028566295771565848
-2                        -2                       1.3986013986013985       0.031994259139486565
-1.4270887945533663       -2                       1.7778075800092552       0.028317883662571527
0.9387819134775076        -2                       0.655560393584631        0.02599689304212332
1.4618381261501157        -2                       1.0669401072700868       0.027369042236151813
2                         -2                       1.3986013986013985       0.01962442276727906
-0.681482399457245        -2                       1.0983186364724062       0.0184272836535635
-0.07957332045228149      -2                       1.1377343548604368       0.017868065875606496
-0.931162528193509        -2                       1.550072364075461        0.01445590553940417
0.8925878367072754        -2                       1.4155661681446052       0.037315319567953274
0.44158840320331505       -2                       1.0634696305705904       0.019987242753411707
-2                        -2                       2.0979020979020975       0.03694011022281848
-1.3928683485856423       -2                       2.447552447552442        0.033942476315347685
-0.8734516922030858       -2                       2.0961543024278773       0.023797173763045108
1.3928683485856417        -2                       1.7482517482517392       0.03217602099053945
2                         -2                       2.0979020979020975       0.03121350506845111
1.3928683485856423        -2                       2.447552447552442        0.03024941226797705
2                         -2                       2.797202797202796        0.03170429463909099
-0.4375143654547813       -2                       1.6628349329323444       0.021169865182071146
0.8322414176117602        -2                       2.1272477521626416       0.02980329857946668
0.24325862024599454       -2                       1.7704364526325733       0.031969452311278616
-0.3176584040305732       -2                       2.3132180627144616       0.03500793571054081
0.2674700537808138        -2                       2.5620368233436053       0.027225829600346415
1.392868348585642         -2                       3.1468531468531404       0.0334188518031495
0.8043952977651945        -2                       2.819642873050859        0.02310936915709837
-2                        -2                       2.797202797202796        0.021122571032597254
2                         -2                       3.4965034965034967       0.027615109979821122
-0.2707318601416855       -2                       3.029837816257208        0.02620682849892997
-0.8349811804106952       -2                       2.7580080486931893       0.02630046279891561
-2                        -2                       3.4965034965034967       0.01949492862983485
-1.392868348585642        -2                       3.1468531468531404       0.02921975863813252
0.27122003005021833       -2                       3.276467906589031        0.021586759130939825
-0.7857366971712832       -2                       3.4965034965034727       0.031798182023167594
-0.23968849443060503      -2                       3.761717135288639        0.032829701993861725
1.3928683485856421        -2                       3.8461538461538325       0.026157388591092432
1.9999999999999996        -1.9999999999999996      4.195804195804195        0.017278021511018895
0.7943106840168563        -2                       3.5083570844889946       0.023468888508414696
0.785736697171282         -2                       4.195804195804175        0.024131396877598913
-0.7857366971712825       -2                       4.195804195804175        0.0340628752062131
-1.3928683485856421       -2                       3.8461538461538325       0.03574627172003315
-1.9999999999999996       -1.9999999999999996      4.195804195804195        0.030190690802352583
-1.392868348585639        -2                       4.545454545454531        0.03245906140014612
-1.9999999999999996       -1.9999999999999996      4.895104895104893        0.017470670392532438
1.3928683485856386        -2                       4.545454545454531        0.02801669810610513
1.9999999999999996        -1.9999999999999996      4.895104895104893        0.01522402988550925
0.27310714516346263       -2                       3.9785851222218556       0.026896186927260618
-0.23876993251597156      -2                       4.461451690380258        0.030557656748601187
0.785736697171279         -2                       4.895104895104884        0.03880072089047342
-2                        -2                       5.594405594405594        0.024362574297434058
-1.3928683485856421       -2                       5.24475524475524         0.025906091246794435
-0.7857366971712794       -2                       4.895104895104884        0.030262486080393152
0.27362248289541796       -2                       4.678460517942906        0.029281592749889104
-0.23861683886353321      -2                       5.160824698979444        0.029850408489427854
1.3928683485856421        -2                       5.24475524475524         0.02707432148379711
2                         -2                       5.594405594405594        0.01683830647744354
-1.392868348585642        -2                       5.944055944055942        0.02923152799956998
-2                        -2                       6.2937062937062915       0.022706187283032697
1.3928683485856423        -2                       5.944055944055942        0.020872063526882163
2                         -2                       6.2937062937062915       0.01290587762221973
0.7857366971712824        -2                       5.594405594405584        0.029852458206181015
0.27454112924598817       -2                       5.378992505166896        0.030918343207724575
-0.785736697171282        -2                       5.5944055944055835       0.024851380438827342
-0.23859132325479493      -2                       5.8601374498298835       0.02585808604058519
0.2785736697171285        -2                       6.083916083916064        0.02235715468170675
0.7857366971712844        -2                       6.293706293706281        0.025520091215471354
0.27857366971712877       -2                       6.7832167832167665       0.02777881401259026
-0.23858707065333595      -2                       6.559440157722224        0.03293827990943127
-0.7857366971712842       -2                       6.293706293706281        0.032284977244992824
-1.3928683485856403       -2                       6.6433566433566345       0.021115370337682755
-2                        -2                       6.9930069930069925       0.011965032439814205
1.3928683485856403        -2                       6.6433566433566345       0.02122863384087619
2                         -2                       6.9930069930069925       0.022380146393569167
0.7857366971712776        -2                       6.993006993006973        0.02476719276923418
1.39286834858564          -2                       7.342657342657343        0.024331134824544465
2                         -2                       7.692307692307692        0.026272651021704747
0.27857366971712816       -2                       7.4825174825174585       0.023411630397526483
-2                        -2                       7.692307692307692        0.016102494941336892
-1.39286834858564         -2                       7.342657342657343        0.01803998038793847
-0.23858636188642857      -2                       7.258741191788188        0.027401717162463795
-0.7857366971712776       -2                       6.993006993006973        0.031434936549464255
-1.9999999999999991       -1.9999999999999991      8.391608391608388        0.010216142824510664
-1.392868348585643        -2                       8.041958041958031        0.01508449638477226
-0.7857366971712848       -2                       7.6923076923076925       0.024243987866150524
1.392868348585643         -2                       8.041958041958031        0.017456627714689053
1.9999999999999991        -1.9999999999999991      8.391608391608388        0.015777932548564258
0.7857366971712844        -2                       7.692307692307683        0.015343524398392585
-0.7857366971712798       -2                       8.391608391608374        0.017411576679180557
-1.3928683485856377       -2                       8.741258741258735        0.012123624742548557
-2.0000000000000004       -2.0000000000000004      9.09090909090909         0.009652330682893256
2.0000000000000004        -2.0000000000000004      9.09090909090909         0.014253266783814741
1.39286834858564          -2                       9.440559440559444        0.010867894873461284
2.0000000000000004        -2.0000000000000004      9.79020979020979         0.013962598216860788
-0.23858624375860857      -2                       7.958041946883093        0.018023484347865198
-0.23858622407063823      -2                       8.657342655482836        0.015632476924719883
0.27857366971712816       -2                       8.181818181818157        0.01391410958780459
1.3928683485856377        -2                       8.741258741258735        0.013079267114041402
0.7857366971712799        -2                       8.391608391608374        0.011648475653815292
0.27857366971712905       -2                       8.881118881118866        0.015394499260801761
0.7857366971712773        -2                       9.090909090909081        0.012146641431504164
-0.7857366971712776       -2                       9.090909090909083        0.015186977934052055
-0.23858622078931105      -2                       9.356643356333382        0.012399623763321356
1.3928683485856421        -2                       10.139860139860135       0.013392104550816195
1.9999999999999996        -1.9999999999999996      10.48951048951049        0.00875508286643562
-2.0000000000000004       -2.0000000000000004      9.79020979020979         0.007300021697805762
-1.3928683485856403       -2                       9.440559440559444        0.009032641410655401
-0.7857366971712825       -2                       9.790209790209781        0.008015467277085688
-1.3928683485856417       -2                       10.139860139860135       0.005734588441564861
-1.9999999999999996       -1.9999999999999996      10.48951048951049        0.0034706053917942206
0.2785736697171268        -2                       9.580419580419564        0.0154912952799581
0.7857366971712826        -2                       9.790209790209781        0.010994915356177692
-0.23858622024242493      -2                       10.05594405589238        0.00993608885171534
-0.7857366971712834       -2                       10.489510489510485       0.010042200359649254
-0.2385862201512765       -2                       10.755244755236133       0.005707802883271535
0.2785736697171277        -2                       10.27972027972027        0.009769030383623792
0.27857366971712816       -2                       10.979020979020959       0.006173450873677066
0.7857366971712834        -2                       10.48951048951048        0.009465527265691028
1.3928683485856412        -2                       10.839160839160833       0.005188982424062824
2                         -2                       11.188811188811187       0.0017762725585068818
0.7857366971712816        -2                       11.188811188811176       0.005174062551737659
-2                        -2                       11.188811188811187       0.010154744269578374
-1.3928683485856421       -2                       10.839160839160833       0.009202964526739806
-1.3928683485856417       -2                       11.538461538461533       0.007711322768211316
-2                        -2                       11.888111888111883       0.0038984449895950123
1.3928683485856412        -2                       11.538461538461533       0.00455113065376033
2                         -2                       11.888111888111883       0.00439839617837708
-0.785736697171282        -2                       11.188811188811176       0.005721277434561216
1.3928683485856395        -2                       12.23776223776223        0.006008350430895694
2                         -2                       12.587412587412583       0.006837394267358341
-0.2385862201360851       -2                       11.454545454543997       0.004283854400161733
0.27857366971712816       -2                       11.678321678321657       0.00402554685987033
0.7857366971712825        -2                       11.88811188811188        0.005202901407636073
-2                        -2                       12.587412587412583       0.001942047269634925
-1.3928683485856403       -2                       12.237762237762222       0.001936446770731197
-0.7857366971712844       -2                       11.88811188811188        0.0038225883919705364
-0.23858622013355202      -2                       12.153846153845887       0.00400915258433173
0.27857366971712816       -2                       12.377622377622355       0.0064638559958630805
0.7857366971712816        -2                       12.587412587412572       0.006267609560613167
-1.3928683485856403       -2                       12.937062937062926       0.0025286038981695586
-0.7857366971712798       -2                       12.587412587412572       0.0024727843498795403
-0.23858622013313013      -2                       12.853146853146793       0.003057659207787809
1.3928683485856395        -2                       12.937062937062926       0.004615160964429982
2                         -2                       13.286713286713281       0.0014731554067560857
-2                        -2                       13.286713286713281       0.0020402638047094354
0.27857366971712816       -2                       13.076923076923059       0.005169347683281311
0.7857366971712808        -2                       13.286713286713269       0.003361918482008349
-0.7857366971712816       -2                       13.286713286713276       0.003443995039355371
-1.3928683485856423       -2                       13.636363636363631       0.0036785406083475586
-2                        -2                       13.986013986013985       0.004750497306112465
-0.2385862201330613       -2                       13.552447552447521       0.003605956809682207
1.3928683485856417        -2                       13.636363636363631       0.0030587642506535832
2                         -2                       13.986013986013985       0.0016043169336596448
1.392868348585643         -2                       14.335664335664323       0.002406447335901838
2                         -2                       14.68531468531468        0.004123722920259109
0.2785736697171273        -2                       13.77622377622375        9.954888203185788E-4
0.7857366971712842        -2                       13.986013986013967       0.003735646143704486
-0.7857366971712847       -2                       13.986013986013967       0.004794442260378965
-1.3928683485856435       -2                       14.335664335664323       0.0047782312211406865
-2                        -2                       14.68531468531468        0.005680641251878202
-0.7857366971712829       -2                       14.68531468531466        0.0018759135209071127
-0.2385862201330489       -2                       14.25174825174822        0.0031396984674687597
0.2785736697171286        -2                       14.475524475524448       0.0036775457131671247
0.7857366971712815        -2                       14.68531468531466        0.0045947619125877
1.3928683485856395        -2                       15.034965034965026       0.0030661704828641757
2                         -2                       15.38461538461538        0.0042118576476699015
-2                        -2                       15.38461538461538        0.001996367379979174
-2                        -2                       16.08391608391608        0.003044255949316043
-1.392868348585639        -2                       15.734265734265723       0.0018081761613129256
0.785736697171279         -2                       15.384615384615373       0.0010921933916022452
1.3928683485856386        -2                       15.734265734265723       0.001841089662168701
2                         -2                       16.08391608391608        0.0029131088279520777
-1.392868348585639        -2                       15.034965034965019       0.0025174675522685558
-0.785736697171278        -2                       15.384615384615365       9.488090856772362E-4
-0.23858622013304487      -2                       14.951048951048918       0.0016169464426739185
0.27857366971712955       -2                       15.174825174825147       0.0020922887181890563
-0.23858622013304442      -2                       15.650349650349632       6.875940074942277E-4
0.2785736697171273        -2                       15.87412587412586        0.0014683527777435482
1.3928683485856395        -2                       16.433566433566426       0.00305496576528922
2                         -2                       16.783216783216776       0.00427835178676045
0.7857366971712779        -2                       16.083916083916073       5.042417117280929E-4
-0.7857366971712785       -2                       16.083916083916073       1.0975089542069471E-4
-1.3928683485856403       -2                       16.433566433566433       0.0022062946280433982
-2                        -2                       16.783216783216776       0.002930403797597175
-1.3928683485856421       -2                       17.13286713286713        0.003716702975502376
-2                        -2                       17.482517482517476       0.002785755452779781
-0.23858622013304576      -2                       16.349650349650336       8.622293044706591E-4
0.2785736697171268        -2                       16.57342657342656        0.0017541388843053524
-0.7857366971712829       -2                       16.783216783216776       0.001014173165455846
-0.23858622013304753      -2                       17.048951048951032       0.0017793718141480347
-0.7857366971712842       -2                       17.482517482517473       0.0018583751930484208
-1.3928683485856435       -2                       17.832167832167823       0.002913267133955575
-2                        -2                       18.181818181818173       1.8524142210086264E-4
2                         -2                       17.482517482517476       0.00135130842127026
1.392868348585643         -2                       17.832167832167823       0.0015577218327973202
2                         -2                       18.181818181818173       0.0014572558090450748
1.3928683485856412        -2                       17.13286713286713        0.002947412559233238
0.7857366971712824        -2                       16.783216783216776       2.5308253246923154E-4
0.7857366971712841        -2                       17.482517482517476       5.202998940836493E-4
0.2785736697171273        -2                       17.272727272727263       0.0016042771977993328
-0.2385862201330471       -2                       17.748251748251732       8.607841106814173E-4
0.2785736697171286        -2                       17.972027972027956       2.829829080028884E-4
1.3928683485856412        -2                       18.53146853146852        0.0017241360288664787
0.7857366971712842        -2                       18.181818181818166       0.0012180188877159968
-0.7857366971712834       -2                       18.181818181818166       0.0013846090855385523
2                         -2                       18.881118881118876       0.0027569439562410217
-1.3928683485856403       -2                       18.53146853146852        0.0014777208539847968
-2                        -2                       18.881118881118876       2.9013613207534207E-4
0.27857366971712993       -2                       18.671328671328652       0.0015243239041862072
-0.23858622013304484      -2                       18.44755244755242        8.829429655034104E-5
-0.7857366971712798       -2                       18.881118881118866       0.001334116532915171
1.3928683485856386        -2                       19.23076923076922        0.0023006708134930567
2                         -2                       19.580419580419576       0.002887054117694515
0.7857366971712816        -2                       18.881118881118866       0.0023713615521079733
-1.392868348585639        -2                       19.23076923076922        0.0015389083050210643
-0.2385862201330453       -2                       19.146853146853125       0.0021079757659076166
-0.7857366971712794       -2                       19.580419580419573       0.00217151133981357
-2                        -2                       19.580419580419576       5.578296817019857E-4
1.3928683485856417        -2                       19.930069930069926       9.466672698390513E-4
2                         -2                       20.279720279720273       0.001485307224779915
0.7857366971712789        -2                       19.580419580419573       8.620036353096278E-4
0.27857366971712816       -2                       19.370629370629352       0.002231172287305192
0.78573669717128          -2                       20.27972027972026        2.240950209958448E-4
1.3928683485856386        -2                       20.629370629370626       1.9202841503274205E-4
2                         -2                       20.979020979020977       2.925249538786134E-5
-2                        -2                       20.279720279720273       0.0017238875288183037
-1.3928683485856421       -2                       19.930069930069926       0.0015908580967721507
0.2785736697171268        -2                       20.069930069930052       2.698012596611237E-4
-0.23858622013304487      -2                       19.846153846153825       0.0016539932033024678
-0.7857366971712808       -2                       20.27972027972026        7.95022651341008E-4
-1.3928683485856386       -2                       20.629370629370626       0.0013796320825327564
-0.785736697171282        -2                       20.97902097902097        7.9725293563542E-4
-2                        -2                       20.979020979020977       0.0013144180720377214
0.7857366971712799        -2                       20.97902097902098        3.033171936192756E-4
-0.23858622013304576      -2                       20.54545454545453        7.412713406769398E-4
0.27857366971712816       -2                       20.769230769230756       7.948743772243053E-4
-0.2385862201330462       -2                       21.244755244755233       8.631506884980445E-4
-2                        -2                       21.678321678321677       1.312842849978789E-5
-1.3928683485856421       -2                       21.328671328671323       1.4716806800138773E-5
-0.7857366971712816       -2                       21.678321678321673       8.63052338077789E-4
1.3928683485856412        -2                       21.328671328671323       9.406109087090502E-5
2                         -2                       21.678321678321677       1.4702393909976286E-4
0.2785736697171268        -2                       21.468531468531456       8.264872587203392E-5
0.7857366971712824        -2                       21.67832167832167        2.1133454745471977E-5
1.39286834858564          -2                       22.02797202797202        9.394224900542361E-5
-0.2385862201330471       -2                       21.944055944055933       1.4238693287423968E-4
-1.3928683485856403       -2                       22.02797202797202        6.709204195306115E-4
-0.7857366971712834       -2                       22.37762237762237        7.300041932666348E-4
-2                        -2                       22.377622377622373       1.3377589680440506E-4
0.27857366971712816       -2                       22.167832167832145       1.4695735616018145E-4
0.7857366971712834        -2                       22.37762237762237        8.277770214961028E-4
2                         -2                       22.377622377622373       1.4442947266493598E-4
1.392868348585643         -2                       22.72727272727272        8.881157813466888E-4
2                         -2                       23.07692307692307        1.3115564879787918E-7
-0.23858622013304578      -2                       22.643356643356622       1.4704188970947408E-4
0.27857366971712816       -2                       22.86713286713285        2.697146317663346E-4
-0.7857366971712816       -2                       23.07692307692306        2.0409229133144943E-5
-2                        -2                       23.07692307692307        2.623162236056189E-4
-1.3928683485856435       -2                       22.72727272727272        1.4571075376916225E-4
-1.392868348585639        -2                       23.42657342657342        1.5090508315515201E-4
-2                        -2                       23.776223776223766       1.3129873263603028E-4
-0.2385862201330462       -2                       23.342657342657326       1.3779638067442385E-4
0.7857366971712803        -2                       23.076923076923066       9.602283453786519E-4
0.2785736697171287        -2                       23.566433566433545       7.279772350654713E-5
0.7857366971712823        -2                       23.77622377622377        2.1056534248273446E-4
1.3928683485856395        -2                       23.426573426573427       3.438998479862187E-4
2                         -2                       23.776223776223766       1.3277914645889414E-4
1.3928683485856412        -2                       24.125874125874113       1.9840810953616035E-4
2                         -2                       24.47552447552447        0.0013249482038586566
-0.7857366971712824       -2                       23.776223776223766       6.82723928610262E-4
-0.23858622013304576      -2                       24.041958041958022       1.3260898284020539E-5
-2                        -2                       24.47552447552447        1.3379481056817436E-5
-1.3928683485856421       -2                       24.125874125874113       8.073706924313233E-4
-2.0000000000000004       -2.0000000000000004      25.174825174825166       2.793807867888611E-5
-1.3928683485856403       -2                       24.825174825174816       1.517643372562193E-4
-0.7857366971712816       -2                       24.475524475524463       7.361623377637186E-4
0.27857366971712816       -2                       24.265734265734256       7.941228321512863E-4
-0.2385862201330471       -2                       24.741258741258726       7.951071829123134E-4
0.7857366971712825        -2                       24.47552447552446        7.876320433038289E-4
1.39286834858564          -2                       24.825174825174813       8.014948928741526E-4
2.0000000000000004        -2.0000000000000004      25.174825174825166       0.0015869614790323628
-1.3928683485856435       -2                       25.52447552447551        9.262068333751743E-5
-2                        -2                       25.87412587412586        2.797751446908293E-6
-0.7857366971712834       -2                       25.174825174825166       7.426090261211724E-4
-0.23858622013304576      -2                       25.44055944055942        0.0020343659836041593
0.27857366971712816       -2                       24.96503496503495        0.0021647884131416714
0.7857366971712817        -2                       25.174825174825173       2.1202644136649276E-4
0.27857366971712816       -2                       25.664335664335642       7.221278092781279E-4
1.3928683485856435        -2                       25.52447552447551        3.4306138749196573E-4
2                         -2                       25.87412587412586        2.6364373869141526E-4
-0.23858622013304576      -2                       26.139860139860126       7.95447501268211E-5
-0.7857366971712829       -2                       25.874125874125852       0.0013915908383178622
-1.392868348585639        -2                       26.223776223776206       0.0014505579541714032