% Model:              Cav_Hex_Unif_flux_v5.1.2 - Wall Distn.mph
% Version:            COMSOL 5.5.0.359
% Date:               May 16 2022, 16:43
% Dimension:          3
% Nodes:              2312
% Expressions:        1
% Description:        Surface
% x                       y                        z                        Color
-2                        -1.5467906581302693      0.48436023573739106      0.009072604995661464
-2                        -2                       0.6993006993006993       0.017591408873300605
-2                        -2                       0                        0.009848559748070328
-1.9999999999999996       -1.3333333333333333      0                        0.009068856760387578
-2                        0.9854950363904202       0.5398456058460233       0.008305219639461668
-1.9999999999999996       0.6666666666666664       0                        0.005047206598183275
-2                        1.3333333333333328       0                        0.009278766080628003
-2                        1.5331042872139844       0.46695214314432804      0.009849040204575941
-2                        2                        0                        0.009290856310302338
-2                        2                        0.6993006993006993       0.010595925466261437
-2                        1.3650501983379588       1.0765628694962448       0.010829538866662268
-2                        -0.9387819134775094      0.655560393584631        0.010963616813615393
-2                        -0.666666666666667       0                        0.014253903643393453
-1.9999999999999996       6.938893903907228E-18    0                        0.0097268619082455
-2                        0.3333333333333335       0.5972399859632106       0.00869973000883372
-2                        -0.2746188433937594      0.6287052323405429       0.013220310035965731
-2                        -1.4618381261501168      1.0669401072700702       0.012451900455931865
-2                        -2                       1.3986013986013985       0.014414919298729697
-2                        0.6814823994572445       1.0983186364723951       0.008246791910476236
-2                        0.931162528193509        1.5500723640754555       0.007747308526004868
-2                        2                        1.3986013986013985       0.009725130671870329
-2                        1.4270887945533661       1.777807580009244        0.010779742162294504
-2                        0.07957332045228059      1.1377343548604368       0.011474705291499533
-2                        -0.4415884032033146      1.0634696305705904       0.012249238315153118
-2                        -0.8925878367072785      1.4155661681446052       0.011343434256711882
-2                        -1.3928683485856417      1.7482517482517392       0.008472069129087472
-2                        -2                       2.0979020979020975       0.013397144534391628
-2                        -1.3928683485856423      2.447552447552442        0.011421858520906929
-2                        -0.8322414176117614      2.127247752162631        0.01052375508106397
-2                        0.4375143654547809       1.6628349329323222       0.00648008832322249
-2                        0.8734516922030853       2.0961543024278666       0.00837907098053283
-2                        2                        2.0979020979020975       0.012556177673002157
-2                        2                        2.797202797202796        0.01172098694895409
-2                        1.3928683485856423       2.447552447552442        0.013342730060762822
-2                        -0.2432586202459959      1.7704364526325622       0.011671641265119829
-2                        0.31765840403057277      2.313218062714456        0.010049189981351576
-2                        -2                       2.797202797202796        0.011194865634382439
-2                        -0.2674700537808149      2.5620368233435995       0.014434669794287978
-2                        -1.3928683485856448      3.1468531468531404       0.012668154517918901
-2                        -2                       3.4965034965034967       0.011337566556981196
-2                        -0.8043952977651958      2.8196428730508485       0.012113723057769104
-2                        0.8349811804106952       2.7580080486931893       0.010198511035331648
-2                        1.392868348585642        3.1468531468531404       0.011181847411132062
-2                        2                        3.4965034965034967       0.01159278750901493
-2                        0.7857366971712838       3.496503496503489        0.010074730169419318
-2                        0.27073186014168504      3.0298378162571975       0.01298546237984431
-2                        -0.27122003005021955     3.276467906589031        0.00996885078796112
-2                        -0.7943106840168576      3.508357084488978        0.01112249238392451
-2                        -1.3928683485856421      3.8461538461538325       0.012795970026501928
-2                        0.2396884944306046       3.761717135288639        0.013114469956245553
-1.9999999999999996       -1.9999999999999996      4.195804195804195        0.01498015918518542
-1.9999999999999996       1.9999999999999996       4.195804195804195        0.00904305545028915
-2                        1.3928683485856421       3.8461538461538325       0.010280420649784627
-2                        0.7857366971712788       4.195804195804182        0.009163269426720013
-2                        1.3928683485856386       4.545454545454541        0.006809900361920643
-1.9999999999999996       1.9999999999999996       4.895104895104893        0.007917335871276734
-2                        -0.7857366971712819      4.195804195804182        0.011167999776068813
-2                        -0.27310714516346263     3.9785851222218556       0.015001207604368584
-2                        -1.3928683485856386      4.545454545454531        0.010997596252202797
-1.9999999999999996       -1.9999999999999996      4.895104895104893        0.011398232348251608
-2                        0.23876993251597203      4.461451690380269        0.013200580915881775
-2                        -0.27362248289541746     4.678460517942923        0.01296557787115187
-2                        -0.7857366971712776      4.895104895104884        0.009446512453631912
-2                        -1.3928683485856421      5.24475524475524         0.009863489063643913
-2                        -2                       5.594405594405594        0.013128689641614759
-2                        0.23861683886353413      5.160824698979444        0.00860821671824036
-2                        1.3928683485856421       5.24475524475524         0.008834505557640494
-2                        0.785736697171282        4.895104895104884        0.007197605860573612
-2                        2                        5.594405594405594        0.013511293159447123
-2                        -1.3928683485856423      5.944055944055942        0.01127208774221689
-2                        -2                       6.2937062937062915       0.012283538472569577
-2                        -0.2745411292459874      5.378992505166885        0.014731655429923265
-2                        -0.7857366971712824      5.594405594405584        0.011910307695176597
-2                        0.7857366971712834       5.5944055944055835       0.006269589904369489
-2                        2                        6.2937062937062915       0.009447374881451961
-2                        1.392868348585642        5.944055944055942        0.01261665998240219
-2                        -0.2785736697171282      6.0839160839160575       0.011735638759096048
-2                        0.23859132325479537      5.8601374498298835       0.010992985343321183
-2                        0.7857366971712838       6.2937062937062915       0.014542429854323266
-2                        2                        6.9930069930069925       0.0033083603324167202
-2                        1.39286834858564         6.6433566433566345       0.010075226741425006
-2                        -0.7857366971712844      6.293706293706281        0.007698969580859885
-2                        -1.3928683485856403      6.6433566433566345       0.010176059707928498
-2                        -2                       6.9930069930069925       0.008561180846703624
-2                        0.23858707065333595      6.559440157722218        0.009660605887084717
-2                        -0.2785736697171285      6.7832167832167665       0.00461227217153478
-2                        -1.39286834858564        7.342657342657343        0.007021025505909228
-2                        -0.7857366971712776      6.993006993006973        0.007624656102142784
-2                        -2                       7.692307692307692        0.006819489597065011
-2                        -1.392868348585643       8.041958041958031        0.008157092588138303
-1.9999999999999991       -1.9999999999999991      8.391608391608388        0.008218091512994807
-2                        1.39286834858564         7.342657342657343        0.004863479156039958
-2                        2                        7.692307692307692        0.003889104699459831
-2                        0.785736697171277        6.993006993006973        0.011772356600298016
-2                        0.7857366971712848       7.6923076923076925       0.007727722651991453
-2                        0.23858636188642857      7.258741191788188        0.005044784851433217
-2                        -0.27857366971712816     7.482517482517465        0.006477143130119347
-2                        -0.7857366971712848      7.6923076923076925       0.009824188667844909
-2                        1.392868348585643        8.041958041958031        0.005704138194378067
-1.9999999999999991       1.9999999999999991       8.391608391608388        0.010832169723325675
-2                        0.238586243758609        7.958041946883093        0.007063870776423787
-2                        0.7857366971712798       8.391608391608374        0.008481125121444557
-2                        1.3928683485856377       8.741258741258735        0.010311782802192197
-2                        -0.7857366971712799      8.391608391608374        0.010936065853020817
-2                        -0.2785736697171277      8.181818181818157        0.011846386645940168
-2                        -1.3928683485856377      8.741258741258735        0.008413496008092389
-2.0000000000000004       2.0000000000000004       9.09090909090909         0.008685264406939218
-2.0000000000000004       -2.0000000000000004      9.09090909090909         0.007041513279064614
-2                        -0.7857366971712776      9.090909090909083        0.009138933546359446
-2                        -1.3928683485856403      9.440559440559444        0.005768849490801036
-2.0000000000000004       -2.0000000000000004      9.79020979020979         0.0010694972465352323
-2                        1.39286834858564         9.440559440559444        0.007257718873045812
-2.0000000000000004       2.0000000000000004       9.79020979020979         0.0067646391892021915
-2                        -0.27857366971712955     8.881118881118866        0.011056634881245928
-2                        0.23858622407063823      8.65734265548282         0.011579124252578692
-2                        0.7857366971712771       9.090909090909083        0.009556567504796968
-2                        0.23858622078931105      9.356643356333372        0.01096933208201946
-2                        -0.2785736697171268      9.580419580419564        0.010406170977909286
-2                        -1.3928683485856421      10.139860139860135       0.004886135221350156
-1.9999999999999996       -1.9999999999999996      10.48951048951049        0.002769848112106345
-2                        -0.7857366971712826      9.790209790209781        0.011103787635685897
-2                        0.7857366971712825       9.790209790209781        0.011045182397673867
-1.9999999999999996       1.9999999999999996       10.48951048951049        0.008532583062718613
-2                        1.3928683485856421       10.139860139860135       0.011106032336542055
-2                        -0.2785736697171276      10.279720279720255       0.010009131712601668
-2                        0.23858622024242493      10.055944055892374       0.007933681793970691
-2                        1.3928683485856421       10.839160839160833       0.008631357554194492
-2                        2                        11.188811188811187       0.005144590289770159
-2                        0.7857366971712839       10.489510489510485       0.009316272140190497
-2                        -1.3928683485856417      10.839160839160833       0.00835474087491056
-2                        -2                       11.188811188811187       0.00642911331629364
-2                        -0.7857366971712835      10.48951048951048        0.009614768243236607
-2                        -0.2785736697171285      10.979020979020959       0.0067139274003882405
-2                        -0.7857366971712815      11.188811188811181       0.01077656419620805
-2                        -1.3928683485856412      11.538461538461533       0.011118450592478903
-2                        -2                       11.888111888111883       0.0036905643854680103
-2                        2                        11.888111888111883       0.002934421994779802
-2                        1.3928683485856421       11.538461538461533       0.004130775517023362
-2                        0.7857366971712834       11.188811188811176       0.007031141671416844
-2                        0.2385862201512765       10.755244755236127       0.005959819280423196
-2                        0.23858622013608421      11.454545454544009       0.007996909199649483
-2                        -0.27857366971712816     11.678321678321668       0.008990486589518613
-2                        -0.7857366971712808      11.888111888111885       0.01185925640441894
-2                        -1.3928683485856395      12.237762237762235       0.009194006660678657
-2                        -2                       12.587412587412583       0.004261373500777825
-2                        2                        12.587412587412583       0.003238058874414392
-2                        1.3928683485856401       12.237762237762235       0.004701109604126457
-2                        0.7857366971712798       11.88811188811188        0.007000178049013148
-2                        0.23858622013355246      12.153846153845894       0.010467034602885091
-2                        -0.2785736697171277      12.37762237762236        0.010603499815321354
-2                        -1.3928683485856395      12.937062937062926       0.007806836309806122
-2                        0.7857366971712834       12.587412587412578       0.008564001887786213
-2                        1.39286834858564         12.937062937062926       0.005074277815574614
-2                        -2                       13.286713286713281       0.005852171387983462
-2                        2                        13.286713286713281       0.004665807089377777
-2                        1.3928683485856423       13.636363636363631       0.006553145255284893
-2                        2                        13.986013986013985       0.009510848761731716
-2                        0.23858622013313058      12.853146853146797       0.009503461956923212
-2                        0.7857366971712811       13.286713286713276       0.006416342162820019
-2                        -0.7857366971712811      12.587412587412572       0.009324232757773616
-2                        -0.2785736697171277      13.076923076923064       0.0077847595292145485
-2                        -0.7857366971712808      13.286713286713276       0.007734716429045159
-2                        -1.3928683485856417      13.636363636363631       0.009377588300749305
-2                        -2                       13.986013986013985       0.008604928256142475
-2                        0.23858622013306174      13.552447552447527       0.005111016234704907
-2                        0.7857366971712842       13.986013986013972       0.0045068798092799435
-2                        1.3928683485856435       14.335664335664323       0.0073371230791389385
-2                        2                        14.68531468531468        0.006293600669203939
-2                        1.3928683485856403       15.034965034965026       0.0038780462018274827
-2                        2                        15.38461538461538        0.001351934647776139
-2                        -0.7857366971712842      13.986013986013967       0.008588975458259476
-2                        -0.2785736697171276      13.77622377622375        0.006174143298347347
-2                        -1.392868348585643       14.335664335664323       0.006647852575712449
-2                        -2                       14.68531468531468        0.007139579825140722
-2                        -1.3928683485856386      15.034965034965019       0.006364160319609035
-2                        -2                       15.38461538461538        0.009056502725327592
-2                        0.23858622013304842      14.251748251748232       0.0031569809600454734
-2                        -0.2785736697171294      14.475524475524448       0.0036988393864316733
-2                        -0.7857366971712826      14.68531468531466        0.005534959153620526
-2                        0.785736697171282        14.68531468531466        0.0058461357326350695
-2                        0.785736697171278        15.384615384615374       0.00709449653037707
-2                        -0.7857366971712758      15.384615384615374       0.004240068498781368
-2                        -1.3928683485856386      15.73426573426573        0.0041954737632717625
-2                        -2                       16.08391608391608        0.004865731978485707
-2                        2                        16.08391608391608        0.004183341696434091
-2                        1.3928683485856386       15.73426573426573        0.003128310543864305
-2                        1.3928683485856403       16.433566433566433       0.003745797458007084
-2                        0.7857366971712793       16.083916083916076       0.006093781356627939
-2                        0.23858622013304487      14.951048951048923       0.0039238681635165255
-2                        0.23858622013304487      15.650349650349636       0.004448818431402068
-2                        -0.27857366971712955     15.174825174825152       0.002077203998444289
-2                        -0.2785736697171267      15.87412587412586        0.0038569737013284568
-2                        -0.7857366971712809      16.08391608391607        0.004099260061836999
-2                        -1.3928683485856395      16.433566433566426       0.0034148185650553936
-2                        -2                       16.783216783216776       0.003768074494304698
-2                        2                        16.783216783216776       0.005426870032303088
-2                        -0.7857366971712809      16.783216783216776       0.003123118528990773
-2                        -1.3928683485856417      17.13286713286713        0.002602954663778329
-2                        -2                       17.482517482517476       0.0024536750848934493
-2                        2                        17.482517482517476       0.0046261623985639315
-2                        1.3928683485856421       17.13286713286713        0.0031518862843404314
-2                        -0.2785736697171268      16.57342657342656        0.00235714135484204
-2                        0.23858622013304667      16.349650349650336       0.0030361100892417523
-2                        0.7857366971712829       16.783216783216776       0.003381812058530928
-2                        0.2385862201330471       17.048951048951032       0.0024360184768560376
-2                        -0.2785736697171277      17.272727272727256       0.0024643810445969935
-2                        -1.392868348585643       17.832167832167823       0.00236034488372648
-2                        -2                       18.181818181818173       0.002067657664778883
-2                        -0.7857366971712842      17.48251748251747        0.0025399696091372077
-2                        0.7857366971712825       17.48251748251747        0.0026303066595945008
-2                        2                        18.181818181818173       0.0015326685248574
-2                        1.392868348585643        17.832167832167826       0.003117073956958795
-2                        1.39286834858564         18.531468531468526       0.0025558124205564635
-2                        -1.39286834858564        18.53146853146852        0.002784503354472617
-2                        2                        18.881118881118876       0.0024109725576339836
-2                        -2                       18.881118881118876       0.0014482976484196943
-2                        0.2385862201330462       17.748251748251732       0.002100154107360034
-2                        0.7857366971712834       18.181818181818166       0.002479273146412921
-2                        -0.27857366971712905     17.972027972027956       5.947468024599238E-4
-2                        -0.7857366971712834      18.18181818181816        0.0025680720856891518
-2                        -0.7857366971712794      18.881118881118866       0.0029346054279052584
-2                        -0.2785736697171294      18.671328671328652       9.302743846473595E-4
-2                        0.23858622013304528      18.44755244755242        0.002085988039071751
-2                        0.7857366971712811       18.881118881118873       0.003998298942396297
-2                        1.392868348585639        19.23076923076922        0.0031462834928032367
-2                        2                        19.580419580419576       0.003524431581037041
-2                        -1.3928683485856386      19.23076923076922        0.001609670812179537
-2                        -2                       19.580419580419576       0.0023779716292623974
-2                        1.3928683485856417       19.930069930069926       0.0023942200499293487
-2                        2                        20.279720279720273       0.004397956552894643
-2                        -0.7857366971712798      19.580419580419573       0.0023742290684413193
-2                        -0.2785736697171276      19.370629370629356       0.0010542933685348617
-2                        0.2385862201330453       19.146853146853125       0.0027375556911052473
-2                        0.7857366971712789       19.580419580419573       0.0028985116292166474
-2                        0.23858622013304487      19.846153846153825       0.0022778197366124264
-2                        -1.3928683485856412      19.930069930069923       0.0025467586593056015
-2                        -2                       20.279720279720273       0.003529204071859769
-2                        -1.3928683485856386      20.629370629370626       0.002278561767691776
-2                        -0.7857366971712799      20.279720279720266       0.004132461063175614
-2                        -0.2785736697171277      20.069930069930063       0.002292826316192199
-2                        0.7857366971712808       20.27972027972026        0.004038616854184034
-2                        2                        20.979020979020977       0.0033910902167666106
-2                        1.3928683485856386       20.629370629370626       0.003377307273189039
-2                        1.3928683485856421       21.328671328671323       0.0018998536977635411
-2                        -2                       20.979020979020977       0.001642804014589298
-2                        -0.7857366971712799      20.97902097902098        0.0031986379232908004
-2                        2                        21.678321678321677       0.0036801551502289973
-2                        -0.2785736697171277      20.769230769230752       0.003309958624796024
-2                        0.23858622013304576      20.54545454545453        0.002637633015703211
-2                        -1.3928683485856412      21.328671328671323       0.0020614445725603042
-2                        -2                       21.678321678321677       7.455707978098358E-4
-2                        0.785736697171282        20.97902097902097        0.0027760104320057916
-2                        0.2385862201330462       21.244755244755233       9.851539463995767E-4
-2                        0.7857366971712816       21.678321678321673       7.42675020104222E-4
-2                        1.3928683485856403       22.02797202797202        0.0024549345562175553
-2                        2                        22.377622377622373       0.001649411227782175
-2                        -0.2785736697171268      21.46853146853146        0.001358225394457026
-2                        -0.7857366971712825      21.678321678321673       0.0011597489910846717
-2                        -1.39286834858564        22.02797202797202        7.716376964793874E-4
-2                        -2                       22.377622377622373       0.00222384778669276
-2                        -1.392868348585643       22.72727272727272        0.0010870596979699978
-2                        -2                       23.07692307692307        0.002162571868083383
-2                        1.3928683485856435       22.72727272727272        8.086508727252602E-4
-2                        2                        23.07692307692307        3.3856636486440176E-4
-2                        0.7857366971712834       22.37762237762237        0.001291545469370821
-2                        -0.7857366971712834      22.37762237762237        5.525453599806955E-4
-2                        0.23858622013304753      21.944055944055933       0.00156577917318677
-2                        -0.2785736697171278      22.167832167832152       0.0012260004702546047
-2                        0.2385862201330462       22.643356643356626       0.001917524265146701
-2                        -0.27857366971712816     22.867132867132856       5.279864132119103E-4
-2                        -0.7857366971712803      23.076923076923066       1.888429930911286E-4
-2                        -1.3928683485856395      23.426573426573427       1.780723748918364E-4
-2                        -2                       23.776223776223766       6.426528416141751E-4
-2                        0.785736697171282        23.07692307692306        0.0015605801402169518
-2                        2                        23.776223776223766       7.3623135961331015E-6
-2                        1.39286834858564         23.426573426573427       3.555323752609215E-5
-2                        0.23858622013304576      23.342657342657326       0.0015834749891407518
-2                        -1.3928683485856412      24.125874125874113       0.002353445648509009
-2                        -2                       24.47552447552447        3.0945262426930123E-4
-2                        -0.7857366971712824      23.776223776223766       0.0012492861455734485
-2                        -0.2785736697171294      23.566433566433552       7.684474600277571E-4
-2                        0.7857366971712824       23.776223776223766       6.859439691277099E-4
-2                        -0.2785736697171277      24.265734265734256       0.0011115471890781874
-2                        0.23858622013304617      24.04195804195803        7.380638041943368E-4
-2                        2                        24.47552447552447        0.0010551123924205435
-2                        1.3928683485856421       24.125874125874113       9.128879209573655E-6
-2                        -0.7857366971712811      24.475524475524463       0.0027129651618745198
-2                        -0.2785736697171277      24.965034965034956       6.701394004806023E-5
-2                        0.7857366971712816       24.47552447552447        1.7472722168959646E-4
-2                        0.2385862201330471       24.741258741258726       5.45949706980928E-4
-2                        1.3928683485856403       24.825174825174816       0.0015564834168361403
-2                        -1.3928683485856403      24.825174825174816       0.0016946469810147976
-2.0000000000000004       -2.0000000000000004      25.174825174825166       4.0719770215981307E-5
-2                        -0.7857366971712835      25.174825174825166       0.0012405335505079613
-2.0000000000000004       2.0000000000000004       25.174825174825166       0.0030942600121376933
-2                        -1.3928683485856435      25.52447552447551        8.637965287335178E-4
-2                        -2                       25.87412587412586        5.250720484839108E-5
-2                        -0.7857366971712829      25.874125874125852       0.002053232896300871
-2                        -0.2785736697171286      25.664335664335642       0.001276351143142208
-2                        0.23858622013304576      25.44055944055942        0.0012119122256874148
-2                        0.7857366971712834       25.174825174825166       3.419852255099458E-4
-2                        1.3928683485856435       25.52447552447551        0.0019905692954840567
-2                        2                        25.87412587412586        6.150979831305254E-4
-2                        0.7857366971712825       25.874125874125852       0.0017464623780442147
-2                        1.3928683485856386       26.223776223776206       0.0015303614428017426