% Model:              Cav_Hex_Unif_flux_v5.1.2 - Wall Distn.mph
% Version:            COMSOL 5.5.0.359
% Date:               May 16 2022, 16:43
% Dimension:          3
% Nodes:              2312
% Expressions:        1
% Description:        Surface
% x                       y                        z                        Color
-2                        -1.5467906581302693      0.48436023573739106      0.011075460173253783
-2                        -2                       0.6993006993006993       0.021709649426190965
-2                        -2                       0                        0.011825498161234127
-1.9999999999999996       -1.3333333333333333      0                        0.011048918096771049
-2                        0.9854950363904202       0.5398456058460233       0.00998093267592118
-1.9999999999999996       0.6666666666666664       0                        0.005659772097950849
-2                        1.3333333333333328       0                        0.011335613787175269
-2                        1.5331042872139844       0.46695214314432804      0.011666979827383617
-2                        2                        0                        0.011077954351662244
-2                        2                        0.6993006993006993       0.012836240021500632
-2                        1.3650501983379588       1.0765628694962448       0.013105459770751724
-2                        -0.9387819134775094      0.655560393584631        0.013436038142543849
-2                        -0.666666666666667       0                        0.017649788867971278
-1.9999999999999996       6.938893903907228E-18    0                        0.011774170285777966
-2                        0.3333333333333335       0.5972399859632106       0.010250696928670177
-2                        -0.2746188433937594      0.6287052323405429       0.01590839713857473
-2                        -1.4618381261501168      1.0669401072700702       0.015094816014320292
-2                        -2                       1.3986013986013985       0.017455282444606084
-2                        0.6814823994572445       1.0983186364723951       0.010452604901808403
-2                        0.931162528193509        1.5500723640754555       0.009684437196317477
-2                        2                        1.3986013986013985       0.01202827407321784
-2                        1.4270887945533661       1.777807580009244        0.013112070177530343
-2                        0.07957332045228059      1.1377343548604368       0.013973642826704819
-2                        -0.4415884032033146      1.0634696305705904       0.015168447187643175
-2                        -0.8925878367072785      1.4155661681446052       0.013732121247091255
-2                        -1.3928683485856417      1.7482517482517392       0.009818229179612399
-2                        -2                       2.0979020979020975       0.015412266494346938
-2                        -1.3928683485856423      2.447552447552442        0.013265011146319181
-2                        -0.8322414176117614      2.127247752162631        0.012508591587319722
-2                        0.4375143654547809       1.6628349329323222       0.007871746806811773
-2                        0.8734516922030853       2.0961543024278666       0.01013740294175362
-2                        2                        2.0979020979020975       0.01579596521933686
-2                        2                        2.797202797202796        0.013407029966463055
-2                        1.3928683485856423       2.447552447552442        0.016120085276609217
-2                        -0.2432586202459959      1.7704364526325622       0.014130668821211324
-2                        0.31765840403057277      2.313218062714456        0.011899377175112984
-2                        -2                       2.797202797202796        0.01297562961440693
-2                        -0.2674700537808149      2.5620368233435995       0.017144015202679577
-2                        -1.3928683485856448      3.1468531468531404       0.0144450027232004
-2                        -2                       3.4965034965034967       0.01272419099445192
-2                        -0.8043952977651958      2.8196428730508485       0.0136745295556334
-2                        0.8349811804106952       2.7580080486931893       0.012381631337654825
-2                        1.392868348585642        3.1468531468531404       0.013237748364492305
-2                        2                        3.4965034965034967       0.013903624949667659
-2                        0.7857366971712838       3.496503496503489        0.012019760416328837
-2                        0.27073186014168504      3.0298378162571975       0.01571530741908216
-2                        -0.27122003005021955     3.276467906589031        0.011727001212320886
-2                        -0.7943106840168576      3.508357084488978        0.013059481779535758
-2                        -1.3928683485856421      3.8461538461538325       0.014914252676345175
-2                        0.2396884944306046       3.761717135288639        0.015860958294900657
-1.9999999999999996       -1.9999999999999996      4.195804195804195        0.018204070084837085
-1.9999999999999996       1.9999999999999996       4.195804195804195        0.011158674120174452
-2                        1.3928683485856421       3.8461538461538325       0.012354420160471344
-2                        0.7857366971712788       4.195804195804182        0.010250485533911903
-2                        1.3928683485856386       4.545454545454541        0.007557783014220907
-1.9999999999999996       1.9999999999999996       4.895104895104893        0.009569576871577034
-2                        -0.7857366971712819      4.195804195804182        0.012538808198593784
-2                        -0.27310714516346263     3.9785851222218556       0.01825940927746105
-2                        -1.3928683485856386      4.545454545454531        0.01272156525458496
-1.9999999999999996       -1.9999999999999996      4.895104895104893        0.013881068092365395
-2                        0.23876993251597203      4.461451690380269        0.015518915830900438
-2                        -0.27362248289541746     4.678460517942923        0.015243527002093693
-2                        -0.7857366971712776      4.895104895104884        0.010584533471762683
-2                        -1.3928683485856421      5.24475524475524         0.011961423360823077
-2                        -2                       5.594405594405594        0.016290173710067107
-2                        0.23861683886353413      5.160824698979444        0.009346336957093202
-2                        1.3928683485856421       5.24475524475524         0.010631508333197594
-2                        0.785736697171282        4.895104895104884        0.00736619735139965
-2                        2                        5.594405594405594        0.01649857259454338
-2                        -1.3928683485856423      5.944055944055942        0.013421318748231636
-2                        -2                       6.2937062937062915       0.014375379521783853
-2                        -0.2745411292459874      5.378992505166885        0.01703221974948765
-2                        -0.7857366971712824      5.594405594405584        0.013822044133292485
-2                        0.7857366971712834       5.5944055944055835       0.007359190841464414
-2                        2                        6.2937062937062915       0.011343226408323609
-2                        1.392868348585642        5.944055944055942        0.015554555172857651
-2                        -0.2785736697171282      6.0839160839160575       0.013716384797553322
-2                        0.23859132325479537      5.8601374498298835       0.013106456847488493
-2                        0.7857366971712838       6.2937062937062915       0.018072059341304996
-2                        2                        6.9930069930069925       0.0036822606240652484
-2                        1.39286834858564         6.6433566433566345       0.012439680616004048
-2                        -0.7857366971712844      6.293706293706281        0.008666773507548058
-2                        -1.3928683485856403      6.6433566433566345       0.01191242907365901
-2                        -2                       6.9930069930069925       0.010244235573677334
-2                        0.23858707065333595      6.559440157722218        0.011834374459795523
-2                        -0.2785736697171285      6.7832167832167665       0.004637692018450362
-2                        -1.39286834858564        7.342657342657343        0.007797671869887861
-2                        -0.7857366971712776      6.993006993006973        0.007996287374247932
-2                        -2                       7.692307692307692        0.007862610558414265
-2                        -1.392868348585643       8.041958041958031        0.009702425783809657
-1.9999999999999991       -1.9999999999999991      8.391608391608388        0.009559369469324204
-2                        1.39286834858564         7.342657342657343        0.005454755628734526
-2                        2                        7.692307692307692        0.003831948676826413
-2                        0.785736697171277        6.993006993006973        0.01452596375397157
-2                        0.7857366971712848       7.6923076923076925       0.008975292953671788
-2                        0.23858636188642857      7.258741191788188        0.00567290514817248
-2                        -0.27857366971712816     7.482517482517465        0.006694582139047078
-2                        -0.7857366971712848      7.6923076923076925       0.011291275078040555
-2                        1.392868348585643        8.041958041958031        0.006184466672395225
-1.9999999999999991       1.9999999999999991       8.391608391608388        0.012224616164972035
-2                        0.238586243758609        7.958041946883093        0.007819120649877243
-2                        0.7857366971712798       8.391608391608374        0.009560472080585783
-2                        1.3928683485856377       8.741258741258735        0.01183385462224945
-2                        -0.7857366971712799      8.391608391608374        0.012943581014173082
-2                        -0.2785736697171277      8.181818181818157        0.013949886353470232
-2                        -1.3928683485856377      8.741258741258735        0.009875115083695993
-2.0000000000000004       2.0000000000000004       9.09090909090909         0.010030141109794416
-2.0000000000000004       -2.0000000000000004      9.09090909090909         0.008203064695922609
-2                        -0.7857366971712776      9.090909090909083        0.010926616581173115
-2                        -1.3928683485856403      9.440559440559444        0.006925395625210368
-2.0000000000000004       -2.0000000000000004      9.79020979020979         0.0010085967791534857
-2                        1.39286834858564         9.440559440559444        0.008968760543715126
-2.0000000000000004       2.0000000000000004       9.79020979020979         0.008229697975255018
-2                        -0.27857366971712955     8.881118881118866        0.013113126527363036
-2                        0.23858622407063823      8.65734265548282         0.013946925593657337
-2                        0.7857366971712771       9.090909090909083        0.011104279973770675
-2                        0.23858622078931105      9.356643356333372        0.012900179631767901
-2                        -0.2785736697171268      9.580419580419564        0.012299145521618558
-2                        -1.3928683485856421      10.139860139860135       0.005406531266032823
-1.9999999999999996       -1.9999999999999996      10.48951048951049        0.00220569344530684
-2                        -0.7857366971712826      9.790209790209781        0.013798990975810015
-2                        0.7857366971712825       9.790209790209781        0.013401676310988512
-1.9999999999999996       1.9999999999999996       10.48951048951049        0.009814396942963132
-2                        1.3928683485856421       10.139860139860135       0.013683914045029949
-2                        -0.2785736697171276      10.279720279720255       0.011725423553730232
-2                        0.23858622024242493      10.055944055892374       0.008943961452166355
-2                        1.3928683485856421       10.839160839160833       0.01033449368505803
-2                        2                        11.188811188811187       0.005703316310024947
-2                        0.7857366971712839       10.489510489510485       0.01119353906334702
-2                        -1.3928683485856417      10.839160839160833       0.009418399623079438
-2                        -2                       11.188811188811187       0.007192332244768407
-2                        -0.7857366971712835      10.48951048951048        0.011363262301851966
-2                        -0.2785736697171285      10.979020979020959       0.0075502046659656945
-2                        -0.7857366971712815      11.188811188811181       0.012781513020179816
-2                        -1.3928683485856412      11.538461538461533       0.013334397271390597
-2                        -2                       11.888111888111883       0.004403128326540911
-2                        2                        11.888111888111883       0.002958469046835515
-2                        1.3928683485856421       11.538461538461533       0.004467113051981531
-2                        0.7857366971712834       11.188811188811176       0.008052208557530102
-2                        0.2385862201512765       10.755244755236127       0.006334010743646218
-2                        0.23858622013608421      11.454545454544009       0.009327657317654914
-2                        -0.27857366971712816     11.678321678321668       0.010648970611197595
-2                        -0.7857366971712808      11.888111888111885       0.014549950340905294
-2                        -1.3928683485856395      12.237762237762235       0.011063567155579865
-2                        -2                       12.587412587412583       0.0045193162593247195
-2                        2                        12.587412587412583       0.003102944229694766
-2                        1.3928683485856401       12.237762237762235       0.0046652424247181695
-2                        0.7857366971712798       11.88811188811188        0.007951136693491876
-2                        0.23858622013355246      12.153846153845894       0.012135593355478055
-2                        -0.2785736697171277      12.37762237762236        0.012661159718372445
-2                        -1.3928683485856395      12.937062937062926       0.009086464235886561
-2                        0.7857366971712834       12.587412587412578       0.009447433975945886
-2                        1.39286834858564         12.937062937062926       0.004929379109155671
-2                        -2                       13.286713286713281       0.006997520733585074
-2                        2                        13.286713286713281       0.004781365648888715
-2                        1.3928683485856423       13.636363636363631       0.007821152601143027
-2                        2                        13.986013986013985       0.011306739401655755
-2                        0.23858622013313058      12.853146853146797       0.011624847816881482
-2                        0.7857366971712811       13.286713286713276       0.007659381413633658
-2                        -0.7857366971712811      12.587412587412572       0.01109851756089398
-2                        -0.2785736697171277      13.076923076923064       0.009501640068960345
-2                        -0.7857366971712808      13.286713286713276       0.009057983725796479
-2                        -1.3928683485856417      13.636363636363631       0.011088916095475914
-2                        -2                       13.986013986013985       0.010050448328838167
-2                        0.23858622013306174      13.552447552447527       0.006166658860959336
-2                        0.7857366971712842       13.986013986013972       0.005446705371958171
-2                        1.3928683485856435       14.335664335664323       0.008516961995957714
-2                        2                        14.68531468531468        0.007127212825879064
-2                        1.3928683485856403       15.034965034965026       0.004360697781608526
-2                        2                        15.38461538461538        0.001459744871454517
-2                        -0.7857366971712842      13.986013986013967       0.01027986747766802
-2                        -0.2785736697171276      13.77622377622375        0.007525926776669505
-2                        -1.392868348585643       14.335664335664323       0.00774237832618771
-2                        -2                       14.68531468531468        0.008476880462558943
-2                        -1.3928683485856386      15.034965034965019       0.007384662917049384
-2                        -2                       15.38461538461538        0.011039073085212604
-2                        0.23858622013304842      14.251748251748232       0.0035311607848875614
-2                        -0.2785736697171294      14.475524475524448       0.004252075323238908
-2                        -0.7857366971712826      14.68531468531466        0.006338107123544912
-2                        0.785736697171282        14.68531468531466        0.006871002376510802
-2                        0.785736697171278        15.384615384615374       0.008750271070375995
-2                        -0.7857366971712758      15.384615384615374       0.004573659429346819
-2                        -1.3928683485856386      15.73426573426573        0.004629694597435583
-2                        -2                       16.08391608391608        0.005657110288278588
-2                        2                        16.08391608391608        0.004511750242932408
-2                        1.3928683485856386       15.73426573426573        0.0035760883167632873
-2                        1.3928683485856403       16.433566433566433       0.00430484380937406
-2                        0.7857366971712793       16.083916083916076       0.007451949859435554
-2                        0.23858622013304487      14.951048951048923       0.004292059671586342
-2                        0.23858622013304487      15.650349650349636       0.004966823119070576
-2                        -0.27857366971712955     15.174825174825152       0.0017592165157565866
-2                        -0.2785736697171267      15.87412587412586        0.004784767248260455
-2                        -0.7857366971712809      16.08391608391607        0.00484123450287927
-2                        -1.3928683485856395      16.433566433566426       0.003702893380785048
-2                        -2                       16.783216783216776       0.00423646225625936
-2                        2                        16.783216783216776       0.005970313024139501
-2                        -0.7857366971712809      16.783216783216776       0.0035192789093954867
-2                        -1.3928683485856417      17.13286713286713        0.002864900206167771
-2                        -2                       17.482517482517476       0.00279931771828669
-2                        2                        17.482517482517476       0.005564777615662227
-2                        1.3928683485856421       17.13286713286713        0.0035643941145049925
-2                        -0.2785736697171268      16.57342657342656        0.002798468408607979
-2                        0.23858622013304667      16.349650349650336       0.003586840046958712
-2                        0.7857366971712829       16.783216783216776       0.004154660708966174
-2                        0.2385862201330471       17.048951048951032       0.0023802384893015257
-2                        -0.2785736697171277      17.272727272727256       0.002791269395569285
-2                        -1.392868348585643       17.832167832167823       0.0027841905321298855
-2                        -2                       18.181818181818173       0.0026276519543791677
-2                        -0.7857366971712842      17.48251748251747        0.002808444228084152
-2                        0.7857366971712825       17.48251748251747        0.00244984245920016
-2                        2                        18.181818181818173       0.0016422172418227743
-2                        1.392868348585643        17.832167832167826       0.0036359118090830305
-2                        1.39286834858564         18.531468531468526       0.002927627755959098
-2                        -1.39286834858564        18.53146853146852        0.003413643229634855
-2                        2                        18.881118881118876       0.0028002987923814097
-2                        -2                       18.881118881118876       0.0014615820634999211
-2                        0.2385862201330462       17.748251748251732       0.002181612025015656
-2                        0.7857366971712834       18.181818181818166       0.002855061607897207
-2                        -0.27857366971712905     17.972027972027956       6.907603294568104E-4
-2                        -0.7857366971712834      18.18181818181816        0.0029158574836380875
-2                        -0.7857366971712794      18.881118881118866       0.0034857635122511645
-2                        -0.2785736697171294      18.671328671328652       8.887913046532156E-4
-2                        0.23858622013304528      18.44755244755242        0.0026437893309769656
-2                        0.7857366971712811       18.881118881118873       0.004814988841071294
-2                        1.392868348585639        19.23076923076922        0.00359058566406739
-2                        2                        19.580419580419576       0.004252091124889679
-2                        -1.3928683485856386      19.23076923076922        0.0015853295295730405
-2                        -2                       19.580419580419576       0.0028255817960762156
-2                        1.3928683485856417       19.930069930069926       0.0027952547765579595
-2                        2                        20.279720279720273       0.005380100370184374
-2                        -0.7857366971712798      19.580419580419573       0.002758081375898808
-2                        -0.2785736697171276      19.370629370629356       0.0013329236944470881
-2                        0.2385862201330453       19.146853146853125       0.0033655819588394166
-2                        0.7857366971712789       19.580419580419573       0.003431353715582867
-2                        0.23858622013304487      19.846153846153825       0.0027628080423657323
-2                        -1.3928683485856412      19.930069930069923       0.0028576438319935795
-2                        -2                       20.279720279720273       0.0041330487924223554
-2                        -1.3928683485856386      20.629370629370626       0.002311123559294056
-2                        -0.7857366971712799      20.279720279720266       0.004860755537794806
-2                        -0.2785736697171277      20.069930069930063       0.0027696134788808033
-2                        0.7857366971712808       20.27972027972026        0.0047946590176154115
-2                        2                        20.979020979020977       0.004068718971436891
-2                        1.3928683485856386       20.629370629370626       0.00406793116087657
-2                        1.3928683485856421       21.328671328671323       0.0021072884116962037
-2                        -2                       20.979020979020977       0.0015869642336624652
-2                        -0.7857366971712799      20.97902097902098        0.0035760657423873766
-2                        2                        21.678321678321677       0.00434428136780398
-2                        -0.2785736697171277      20.769230769230752       0.004026520124395405
-2                        0.23858622013304576      20.54545454545453        0.0029071403624264594
-2                        -1.3928683485856412      21.328671328671323       0.0021807961687793386
-2                        -2                       21.678321678321677       2.901206259301886E-4
-2                        0.785736697171282        20.97902097902097        0.0029721718000575077
-2                        0.2385862201330462       21.244755244755233       8.801811380730657E-4
-2                        0.7857366971712816       21.678321678321673       7.957839188805914E-4
-2                        1.3928683485856403       22.02797202797202        0.0029597270128470677
-2                        2                        22.377622377622373       0.0018391555780104705
-2                        -0.2785736697171268      21.46853146853146        0.0014252496661694026
-2                        -0.7857366971712825      21.678321678321673       0.0013479850600119473
-2                        -1.39286834858564        22.02797202797202        7.55833875351897E-4
-2                        -2                       22.377622377622373       0.0026492746164608508
-2                        -1.392868348585643       22.72727272727272        0.0013313274224714452
-2                        -2                       23.07692307692307        0.0026492628284136986
-2                        1.3928683485856435       22.72727272727272        8.683987966945733E-4
-2                        2                        23.07692307692307        1.443383581442778E-4
-2                        0.7857366971712834       22.37762237762237        0.0015116754324093773
-2                        -0.7857366971712834      22.37762237762237        6.768811729438714E-4
-2                        0.23858622013304753      21.944055944055933       0.0015837975200246942
-2                        -0.2785736697171278      22.167832167832152       0.0013936934023717424
-2                        0.2385862201330462       22.643356643356626       0.0021739770750993453
-2                        -0.27857366971712816     22.867132867132856       6.629981914708498E-4
-2                        -0.7857366971712803      23.076923076923066       7.942670148102136E-5
-2                        -1.3928683485856395      23.426573426573427       7.935470696324374E-5
-2                        -2                       23.776223776223766       2.7541856698796925E-4
-2                        0.785736697171282        23.07692307692306        0.0019780444573160483
-2                        2                        23.776223776223766       1.5007949090734817E-6
-2                        1.39286834858564         23.426573426573427       1.4550375937826653E-5
-2                        0.23858622013304576      23.342657342657326       0.0019792299893088335
-2                        -1.3928683485856412      24.125874125874113       0.00276147616806946
-2                        -2                       24.47552447552447        1.3247778773372809E-4
-2                        -0.7857366971712824      23.776223776223766       0.0014565115292361245
-2                        -0.2785736697171294      23.566433566433552       8.020777974587326E-4
-2                        0.7857366971712824       23.776223776223766       7.300645842017336E-4
-2                        -0.2785736697171277      24.265734265734256       0.0013974284884239983
-2                        0.23858622013304617      24.04195804195803        7.437630994362862E-4
-2                        2                        24.47552447552447        0.0013249141292285109
-2                        1.3928683485856421       24.125874125874113       2.1811444395426632E-6
-2                        -0.7857366971712811      24.475524475524463       0.003345749003096541
-2                        -0.2785736697171277      24.965034965034956       7.353094072720688E-5
-2                        0.7857366971712816       24.47552447552447        7.463915700135703E-5
-2                        0.2385862201330471       24.741258741258726       6.705340940517422E-4
-2                        1.3928683485856403       24.825174825174816       0.0019811991834665084
-2                        -1.3928683485856403      24.825174825174816       0.002034890722934092
-2.0000000000000004       -2.0000000000000004      25.174825174825166       1.4575163234782701E-5
-2                        -0.7857366971712835      25.174825174825166       0.0013909423814974532
-2.0000000000000004       2.0000000000000004       25.174825174825166       0.00394809731145846
-2                        -1.3928683485856435      25.52447552447551        8.075160619677289E-4
-2                        -2                       25.87412587412586        2.6651452779387188E-5
-2                        -0.7857366971712829      25.874125874125852       0.002177255483583797
-2                        -0.2785736697171286      25.664335664335642       0.0014500274613540572
-2                        0.23858622013304576      25.44055944055942        9.995795746908448E-4
-2                        0.7857366971712834       25.174825174825166       1.4592880005281174E-4
-2                        1.3928683485856435       25.52447552447551        0.002164160248425291
-2                        2                        25.87412587412586        2.627109889784058E-4
-2                        0.7857366971712825       25.874125874125852       0.0016093813045215258
-2                        1.3928683485856386       26.223776223776206       0.0015286515058763111