% Model:              Cav_Hex_Unif_flux_v5.1.2 - Wall Distn.mph
% Version:            COMSOL 5.5.0.359
% Date:               May 16 2022, 16:43
% Dimension:          3
% Nodes:              1826
% Expressions:        1
% Description:        Surface
% x                       y                        z                        Color
0.7190093876056589        -1                       49.743567143472          0
1                         -1                       50                       0
1                         -1                       49.6124031007752         0
0.6000000000000001        -1                       50                       0
0.3973804184273795        -1                       49.703978807468246       5.964082124846342E-50
0.19999999999999996       -1                       50                       0
0.6236248903756987        -1                       49.40137789980568        5.112070392725436E-50
1                         -1                       49.2248062015504         0
1                         -1                       48.83720930232559        8.88717491156853E-75
0.6645126092583694        -1                       49.00767976279964        0
0.21895298358957144       -1                       49.39176608722758        5.964082124846342E-50
0.36620685624197163       -1                       49.12636205546553        0
0.02269524899334824       -1                       49.68716171430425        2.982041155612067E-61
-0.1999999999999997       -1                       50                       0
-0.09836177863380091      -1                       49.39526615978301        3.58739550992175E-61
-0.38111210693000125      -1                       49.63287709146556        7.674495677079306E-61
-0.5999999999999999       -1                       50                       5.68779194340408E-88
-0.7341292700078723       -1                       49.73016380338987        3.412675166042448E-88
-1                        -1                       50                       0
0.3387404875764728        -1                       48.81880760507406        1.110896863946128E-94
1                         -1                       48.44961240310078        2.4462056056134476E-58
0.6635414102482369        -1                       48.64341085271319        2.4462055634626847E-66
1                         -1                       48.06201550387597        1.1928213290289933E-51
0.6635414102482375        -1                       48.25581395348838        2.452029860415301E-57
0.3270828204964747        -1                       48.44961240310079        1.165791677841104E-67
0.013424971416534037      -1                       49.05095160054088        9.750500474406826E-86
0.009375769255285993      -1                       48.643410852713195       1.1375583897916933E-85
-0.36315940671703384      -1                       49.2172288725506         5.971537227502574E-61
-0.6914798298975102       -1                       49.40570760710693        5.964082124846515E-61
-0.3270828204964782       -1                       48.83720930232559        1.1375583886807964E-85
-0.6635414102482411       -1                       49.03100775193799        9.542531399754435E-54
-1                        -1                       49.6124031007752         0
-1                        -1                       49.2248062015504         1.908506279950887E-53
0.9999999999999998        -0.9999999999999998      47.28682170542636        1.1928355193509435E-47
0.6635414102482402        -1                       47.48062015503877        4.6594391600362735E-56
1                         -1                       47.674418604651166       1.192909613752478E-51
0.66354141024824          -1                       47.868217054263575       5.964105422042186E-52
0.32708282049647774       -1                       47.67441860465117        2.417311575946649E-75
0.6635414102482373        -1                       47.09302325581397        5.367683454893097E-47
0.32708282049647885       -1                       48.06201550387597        9.364622386777664E-71
-0.009375769255285604     -1                       48.25581395348838        9.319810207904765E-67
-0.00937576925528183      -1                       47.868217054263575       2.4428880383370374E-42
-0.6635414102482369       -1                       48.64341085271319        0
-0.32708282049647885      -1                       48.06201550387597        2.4428880383370374E-42
-0.32708282049647464      -1                       48.44961240310079        0
-0.6635414102482375       -1                       48.25581395348838        4.550233554722991E-64
-1                        -1                       48.44961240310078        9.100467109445982E-64
-1                        -1                       48.83720930232559        1.908506279950887E-53
1                         -1                       46.89922480620155        1.1928355100320652E-47
1                         -1                       46.511627906976756       4.443587455784442E-93
0.6635414102482426        -1                       46.70542635658915        9.318878320072852E-71
0.32708282049647885       -1                       47.28682170542636        3.9086208613391527E-29
-0.00937576925528183      -1                       47.48062015503877        9.100467109446116E-71
0.32708282049648          -1                       46.89922480620156        3.9086208613391527E-29
-0.00937576925528294      -1                       47.09302325581397        3.9086208613391527E-29
-0.66354141024824         -1                       47.868217054263575       2.442888038336974E-30
-0.32708282049647797      -1                       47.28682170542636        6.259900598238701E-46
-0.3270828204964793       -1                       47.67441860465117        2.4434987603466217E-42
-0.66354141024824         -1                       47.48062015503877        6.259900672789727E-46
-1                        -1                       47.674418604651166       4.885776076673948E-30
-1                        -1                       48.06201550387597        4.885776076673948E-30
0.6635414102482349        -1                       46.31782945736435        8.678892598181104E-91
1                         -1                       46.12403100775194        1.7357763499157835E-90
0.9999999999999998        -0.9999999999999998      45.736434108527135       2.0520259522030483E-27
0.66354141024824          -1                       45.93023255813954        9.771552153347847E-28
0.3270828204964751        -1                       46.12403100775194        1.1928164249692969E-59
0.32708282049647636       -1                       46.51162790697676        9.318878320072852E-71
-0.009375769255279165     -1                       46.705426356589165       2.221793727892193E-87
-0.009375769255290933     -1                       46.317829457364354       2.3856328499385653E-54
-0.6635414102482375       -1                       47.09302325581397        1.5268050239606622E-47
-0.3270828204964764       -1                       46.51162790697676        6.107220098228252E-45
-0.3270828204964802       -1                       46.89922480620156        3.640186843778508E-78
-0.6635414102482429       -1                       46.70542635658915        3.053610048531969E-35
-1                        -1                       46.89922480620155        6.107220095842494E-35
-0.9999999999999998       -0.9999999999999998      47.28682170542636        0
0.6635414102482429        -1                       45.54263565891474        4.00242786461252E-20
1                         -1                       45.348837209302346       9.771552153347875E-29
1                         -1                       44.96124031007753        0
0.6635414102482375        -1                       45.15503875968994        4.002427762011222E-20
0.32708282049648396       -1                       45.736434108527135       1.1928164249693194E-59
0.3270828204964802        -1                       45.34883720930235        4.002428543735394E-20
-0.00937576925527872      -1                       45.93023255813954        1.1928164249692969E-59
-0.009375769255273614     -1                       45.542635658914755       7.817241722678266E-27
-0.6635414102482351       -1                       46.31782945736435        6.10722009584262E-45
-0.3270828204964842       -1                       45.736434108527135       8.606820659428673E-5
-0.3270828204964753       -1                       46.12403100775194        4.0984860282993765E-6
-0.6635414102482402       -1                       45.93023255813954        8.606820659428673E-5
-1                        -1                       46.12403100775194        0
-1                        -1                       46.511627906976756       6.107220095842494E-35
0.6635414102482402        -1                       44.76744186046513        2.501517351257133E-34
1.0000000000000002        -1.0000000000000002      44.573643410852725       1.639394411319745E-4
1                         -1                       44.18604651162791        1.639394411319745E-4
0.6635414102482335        -1                       44.37984496124031        8.196972056598725E-5
0.3270828204964728        -1                       44.57364341085273        2.501517351257133E-34
0.3270828204964782        -1                       44.96124031007754        2.501517351257133E-34
-0.009375769255284938     -1                       45.155038759689944       7.817241722678266E-27
-0.009375769255284494     -1                       44.76744186046514        1.9085301603220566E-53
-0.3270828204964782       -1                       44.96124031007754        9.542531399753982E-41
-0.3270828204964802       -1                       45.34883720930235        2.385632849938812E-44
-0.6635414102482429       -1                       45.54263565891474        8.196972056598734E-5
-0.6635414102482375       -1                       45.15503875968994        9.603603600712408E-41
-1                        -1                       45.348837209302346       4.550233554723027E-67
-0.9999999999999998       -0.9999999999999998      45.736434108527135       3.9086208613392354E-39
0.6635414102482409        -1                       43.992248062015506       2.0012138810056108E-20
1                         -1                       43.7984496124031         3.8170125599017087E-54
1                         -1                       43.41085271317829        4.885776076674094E-44
0.6635414102482367        -1                       43.6046511627907         2.001213881005617E-20
0.32708282049647797       -1                       43.798449612403104       2.001213881005617E-20
0.32708282049647464       -1                       44.1860465116279         1.2214631042313236E-44
-0.00937576925529382      -1                       44.379844961240316       7.45510265605814E-63
-0.00937576925528183      -1                       43.992248062015506       1.2214440191685244E-44
-0.32708282049647286      -1                       44.57364341085273        1.6950940917146585E-90
-0.32708282049647464      -1                       44.18604651162791        3.908620862316312E-30
-0.6635414102482402       -1                       44.76744186046513        9.603603600712408E-41
-0.6635414102482335       -1                       44.37984496124031        1.0006069405028083E-21
-1.0000000000000002       -1.0000000000000002      44.573643410852725       7.280373687556822E-66
-1                        -1                       44.96124031007753        1.2214440191685194E-42
0.6635414102482409        -1                       43.2170542635659         2.4428940024191717E-44
1                         -1                       43.02325581395349        2.4531481680980443E-40
1                         -1                       42.63565891472869        2.4526595904903767E-40
0.6635414102482418        -1                       42.82945736434109        1.6009711048044849E-18
0.32708282049648224       -1                       43.02325581395349        1.6009711048044849E-18
0.32708282049647724       -1                       43.41085271317829        6.253798263918799E-35
-0.009375769255284938     -1                       43.6046511627907         1.336002109577231E-51
-0.009375769255280275     -1                       43.2170542635659         4.885776458413489E-41
-0.3270828204964782       -1                       43.798449612403104       3.908620862316312E-30
-0.3270828204964773       -1                       43.41085271317829        6.145390221918778E-46
-0.6635414102482411       -1                       43.992248062015506       1.0006069444114292E-21
-0.6635414102482369       -1                       43.6046511627907         2.448995258432883E-43
-1                        -1                       43.7984496124031         4.550233554723016E-67
-1                        -1                       44.18604651162791        2.0012138810056167E-21
1                         -1                       42.24806201550388        1.5634483445359188E-34
0.6635414102482373        -1                       42.441860465116285       1.2080882922405174E-47
0.9999999999999998        -0.9999999999999998      41.86046511627906        1.5634483445356774E-34
0.6635414102482333        -1                       42.05426356589147        6.253793378924309E-25
0.32708282049647114       -1                       42.248062015503876       3.1268968141471637E-26
0.32708282049647974       -1                       42.635658914728694       1.6009711048044849E-18
-0.009375769255277167     -1                       42.8294573643411         1.9085211901561641E-53
-0.009375769255286936     -1                       42.4418604651163         3.126896689071296E-26
-0.3270828204964824       -1                       43.02325581395349        4.901044130730769E-39
-0.32708282049647974      -1                       42.635658914728694       5.003034704529535E-32
-0.6635414102482411       -1                       43.2170542635659         5.0030347025141145E-20
-0.663541410248242        -1                       42.82945736434109        5.0030347025141145E-20
-1                        -1                       43.02325581395349        1.0006069405028229E-19
-1                        -1                       43.41085271317829        4.885776076674081E-43
0.9999999999999998        -0.9999999999999998      41.47286821705427        2.982041062423287E-66
0.6635414102482418        -1                       41.66666666666666        6.253793378142584E-25
0.9999999999999998        -0.9999999999999998      41.08527131782947        1.3448157280858073E-13
0.6635414102482418        -1                       41.27906976744187        2.5015173512570306E-24
0.3270828204964844        -1                       41.47286821705427        4.837808315381665E-70
0.3270828204964751        -1                       41.86046511627906        6.253793390650171E-25
-0.009375769255293378     -1                       42.05426356589147        3.126936838424784E-26
-0.00937576925527761      -1                       41.66666666666666        1.9543104306696174E-39
-0.32708282049647486      -1                       41.86046511627906        3.201942209608933E-13
-0.3270828204964713       -1                       42.24806201550388        7.82174445391058E-28
-0.6635414102482375       -1                       42.441860465116285       7.817742029965581E-28
-0.6635414102482335       -1                       42.05426356589147        7.817241722678268E-28
-1                        -1                       42.24806201550388        1.5655715624316366E-58
-1                        -1                       42.63565891472869        7.634025119803137E-37
0.663541410248236         -1                       40.89147286821706        6.724078640429036E-14
1                         -1                       40.69767441860465        1.3448157280357769E-13
1                         -1                       40.310077519379846       1.5634483445359838E-34
0.66354141024824          -1                       40.50387596899225        7.817251494230545E-35
0.6635414102482369        -1                       40.11627906976744        5.123107535374251E-9
0.32708282049647636       -1                       40.69767441860465        1.4657328232193109E-40
0.3270828204964773        -1                       41.08527131782947        1.4910205312116172E-50
-0.0093757692552765       -1                       41.279069767441875       1.6009711048044765E-16
-0.009375769255288269     -1                       40.891472868217065       1.6009711048044765E-16
-0.009375769255283828     -1                       40.503875968992254       4.885776077055761E-41
-0.32708282049648485      -1                       41.47286821705427        3.201942209608933E-13
-0.3270828204964773       -1                       41.08527131782947        1.6009711048044783E-16
-0.6635414102482429       -1                       41.66666666666666        3.201942209608933E-13
-0.663541410248242        -1                       41.27906976744187        1.250758675628544E-34
-0.9999999999999998       -0.9999999999999998      41.47286821705427        3.032139352271948E-51
-0.9999999999999998       -0.9999999999999998      41.86046511627906        4.7712813556719185E-53
1                         -1                       39.922480620155035       3.0536102343287104E-47
1                         -1                       39.53488372093023        2.561553767687142E-12
0.6635414102482411        -1                       39.72868217054263        5.124388312258094E-9
0.6635414102482369        -1                       39.34108527131784        1.2807768838436175E-12
0.3270828204964782        -1                       39.922480620155035       5.123107535374251E-9
0.3270828204964759        -1                       40.31007751937985        3.908767434621507E-36
-0.00937576925528627      -1                       40.116279069767444       6.1072200958426E-43
-0.009375769255280943     -1                       39.72868217054264        3.20194220960901E-15
-0.32708282049647597      -1                       40.310077519379846       5.123107935617057E-12
-0.3270828204964764       -1                       40.69767441860465        4.0024277620127765E-19
-0.663541410248236        -1                       40.89147286821706        1.5646994940734096E-31
-0.6635414102482402       -1                       40.50387596899225        4.002427762011213E-19
-0.6635414102482369       -1                       40.11627906976744        5.123107535374281E-12
-1                        -1                       40.69767441860465        0
-0.9999999999999998       -0.9999999999999998      41.08527131782947        2.982041062423191E-51
1                         -1                       39.14728682170542        9.255614199651233E-26
0.6635414102482409        -1                       38.95348837209302        4.627807105932837E-26
1                         -1                       38.75968992248062        2.4428880383370327E-41
0.6635414102482402        -1                       38.565891472868216       3.2019422096089526E-16
0.32708282049647813       -1                       39.14728682170542        1.954310430670209E-37
0.3270828204964782        -1                       39.53488372093024        6.285062345033602E-29
-0.009375769255284272     -1                       39.34108527131784        3.126896689071333E-31
-0.009375769255280943     -1                       38.95348837209303        1.6009711048044835E-18
-0.3270828204964782       -1                       39.53488372093024        5.123427729595229E-11
-0.3270828204964782       -1                       39.922480620155035       5.126309477583889E-12
-0.6635414102482411       -1                       39.72868217054263        1.2507664932611086E-27
-0.6635414102482369       -1                       39.34108527131784        5.123107535374268E-11
-1                        -1                       39.922480620155035       2.5015173512570477E-27
-1                        -1                       40.310077519379846       0
1                         -1                       38.372093023255815       2.4428880383370327E-41
1                         -1                       37.984496124031          2.9121494750460044E-62
0.663541410248236         -1                       38.178294573643406       3.2019422096089526E-16
0.6635414102482411        -1                       37.7906976744186         1.600971104804484E-17
0.32708282049647647       -1                       38.372093023255815       3.2019422096089526E-16
0.3270828204964799        -1                       38.759689922480625       6.126763200149192E-35
-0.00937576925528183      -1                       38.56589147286822        6.403884419217967E-21
-0.009375769255288269     -1                       38.17829457364341        1.0006069405028226E-28
-0.3270828204964822       -1                       38.759689922480625       1.6073749892237014E-18
-0.3270828204964773       -1                       39.14728682170542        5.123107695471378E-11
-0.6635414102482411       -1                       38.95348837209302        1.2507586756285144E-23
-0.66354141024824         -1                       38.565891472868216       6.557577645279003E-6
-1                        -1                       39.14728682170542        3.7275513280291123E-59
-1                        -1                       39.53488372093023        7.110097193686539E-92
1.0000000000000002        -1.0000000000000002      37.5968992248062         6.253870084827086E-32
1                         -1                       37.2093023255814         1.4910205321658337E-47
0.6635414102482411        -1                       37.4031007751938         1.280776883843597E-13
0.6635414102482375        -1                       37.01550387596899        1.0006077222274771E-30
0.3270828204964826        -1                       37.59689922480621        1.2809369809540776E-13
0.32708282049647686       -1                       37.984496124031          1.600971104804481E-17
-0.009375769255279387     -1                       37.790697674418595       1.0006100673995116E-28
-0.009375769255277834     -1                       37.403100775193806       1.5634483457811304E-34
-0.32708282049647464      -1                       38.372093023255815       6.55757764527901E-6
-0.32708282049647686      -1                       37.984496124031          2.56155376768715E-13
-0.663541410248236        -1                       38.178294573643406       6.5575802068327716E-6
-0.6635414102482411       -1                       37.7906976744186         2.5615537678472456E-13
-1                        -1                       38.372093023255815       5.1231075353742825E-12
-1                        -1                       38.75968992248062        2.501517351257029E-23
1                         -1                       36.82170542635659        1.7892246540883284E-47
1                         -1                       36.434108527131784       9.771552153348037E-37
0.6635414102482402        -1                       36.627906976744185       1.270311322468136E-36
0.6635414102482364        -1                       36.240310077519375       5.038552004413903E-37
0.3270828204964778        -1                       36.82170542635659        6.403884419217941E-19
0.32708282049647824       -1                       37.2093023255814         1.2807832877280163E-13
-0.009375769255284716     -1                       37.015503875968996       6.403884419217943E-19
-0.00937576925528294      -1                       36.62790697674419        6.403884419219136E-15
-0.3270828204964824       -1                       37.59689922480621        2.5615537678472456E-13
-0.32708282049647797      -1                       37.2093023255814         1.5634483457710182E-34
-0.6635414102482411       -1                       37.4031007751938         2.049243014149738E-8
-0.6635414102482373       -1                       37.01550387596899        4.098486028299394E-8
-1.0000000000000002       -1.0000000000000002      37.5968992248062         4.098486028299473E-8
-1                        -1                       37.984496124031          5.1231075353742825E-12
1                         -1                       36.046511627906966       2.9820411090177976E-49
1                         -1                       35.65891472868218        6.253793378142707E-32
0.6635414102482436        -1                       35.85271317829458        3.126896689071354E-32
0.6635414102482369        -1                       35.46511627906978        3.9089335510081173E-28
0.32708282049648          -1                       36.046511627906966       6.403884419217881E-15
0.3270828204964762        -1                       36.434108527131784       6.403884419217881E-15
-0.009375769255286492     -1                       36.240310077519375       6.403884419217881E-15
-0.009375769255275834     -1                       35.85271317829458        1.0006069405028041E-19
-0.3270828204964762       -1                       36.434108527131784       6.4039044313579465E-15
-0.32708282049647774      -1                       36.82170542635659        6.403884419219136E-15
-0.6635414102482402       -1                       36.627906976744185       6.557577645278978E-4
-0.6635414102482364       -1                       36.240310077519375       2.0012170079022994E-20
-1                        -1                       36.82170542635659        0.0013115974987763614
-1                        -1                       37.2093023255814         1.2295458084898262E-7
1                         -1                       35.27131782945737        7.817241722678425E-28
0.6635414102482406        -1                       35.077519379844965       4.068923174414885E-28
1.0000000000000002        -1.0000000000000002      34.88372093023256        9.834090087511077E-33
0.6635414102482355        -1                       34.689922480620154       4.098486028299402E-9
0.3270828204964771        -1                       35.27131782945737        1.2898509914620172E-29
0.3270828204964802        -1                       35.65891472868218        1.0006069405028047E-19
-0.00937576925528516      -1                       35.46511627906978        1.0006069405028047E-19
-0.009375769255281607     -1                       35.077519379844965       4.002427762011203E-18
-0.3270828204964802       -1                       35.65891472868218        1.9543104428844044E-31
-0.32708282049647996      -1                       36.046511627906966       2.0012138810056102E-20
-0.6635414102482436       -1                       35.85271317829458        3.126896689132376E-26
-0.6635414102482369       -1                       35.46511627906978        8.00741707779004E-15
-1                        -1                       36.046511627906966       6.253793378264752E-26
-1                        -1                       36.434108527131784       0.0013115155290557956
0.9999999999999998        -0.9999999999999998      34.496124031007746       8.196972056598804E-9
1                         -1                       34.10852713178296        1.565949861886906E-25
0.6635414102482441        -1                       34.30232558139535        4.098486028305806E-9
0.6635414102482371        -1                       33.91472868217055        6.404524815489585E-17
0.3270828204964791        -1                       34.49612403100775        6.419904136335339E-15
0.3270828204964769        -1                       34.88372093023256        1.6025345570576755E-29
-0.009375769255286492     -1                       34.68992248062016        4.002427762011203E-18
-0.0093757692552765       -1                       34.30232558139535        1.6651701462478705E-13
-0.3270828204964771       -1                       35.27131782945737        2.5615537836971255E-18
-0.32708282049647686      -1                       34.88372093023256        4.042452039791396E-16
-0.6635414102482406       -1                       35.077519379844965       4.028044140357987E-16
-0.6635414102482355       -1                       34.689922480620154       4.002427762011187E-16
-1                        -1                       35.27131782945737        1.600971121614667E-14
-1                        -1                       35.65891472868218        1.6009711048044707E-14
1                         -1                       33.720930232558146       1.2807768854095326E-16
1.0000000000000002        -1.0000000000000002      33.33333333333335        2.2013352691062187E-21
0.6635414102482406        -1                       33.52713178294574        6.403884469248323E-17
0.6635414102482404        -1                       33.13953488372094        1.1007463854462236E-21
0.3270828204964773        -1                       33.720930232558146       5.003041738032392E-25
0.3270828204964811        -1                       34.10852713178296        6.419910540219758E-15
-0.009375769255283606     -1                       33.914728682170555       8.004855603172085E-24
-0.009375769255279831     -1                       33.52713178294574        1.2585759249862125E-29
-0.32708282049648135      -1                       34.10852713178296        1.6009723858615225E-13
-0.32708282049647913      -1                       34.496124031007746       1.6009723855813525E-13
-0.6635414102482441       -1                       34.30232558139535        4.098486028299507E-6
-0.6635414102482373       -1                       33.91472868217055        2.0032154075762982E-23
-0.9999999999999998       -0.9999999999999998      34.496124031007746       8.196972056598756E-6
-1.0000000000000002       -1.0000000000000002      34.88372093023256        1.681019660044723E-22
1                         -1                       32.94573643410854        2.2014926145476127E-21
1                         -1                       32.55813953488373        1.90850699936822E-43
0.6635414102482373        -1                       32.75193798449614        1.3020760533308736E-22