% Model:              Cav_Hex_Unif_flux_v5.1.2 - Wall Distn.mph
% Version:            COMSOL 5.5.0.359
% Date:               May 16 2022, 16:44
% Dimension:          3
% Nodes:              2840
% Expressions:        1
% Description:        Surface
% x                       y                        z                        Color
5.714285714285714         -8                       0                        0.34121517338984586
5.754801530403203         -8                       1.8820578931072252       0.31921307165122254
8                         -8                       0                        0.3678978516104757
3.428571428571428         -7.999999999999998       0                        0.3339812448834805
8                         -8                       2.5641025641025665       0.35863962521973036
3.960910170576174         -8                       2.5242786437277736       0.29343455575521327
-5.714285714285713        -8                       0                        0.2626023699244945
-8                        -8                       0                        0.25081978216597534
-6.399613512553145        -8                       1.709006963007598        0.2727893525101079
-8                        -8                       2.5641025641025665       0.30372552738847053
-3.4285714285714284       -7.999999999999998       0                        0.34728592806257225
-2.2857142857142847       -8                       2.1395157600494485       0.3267766716840335
-1.142857142857142        -7.999999999999998       0                        0.341491484239945
0                         -8                       2.1395157600494485       0.32006252271008195
2.104398884098128         -8                       2.2255935830165945       0.317058849321241
1.1428571428571426        -8.000000000000002       0                        0.3434564822571426
3.041207673239228         -8                       3.88851632986984         0.2745511001877246
7.999999999999998         -7.999999999999998       5.128205128205133        0.4050129199402413
5.448413851057014         -8                       4.107507802736343        0.34937956564718814
3.6408576312798626        -8                       5.745116325733802        0.3043756582439612
1.0666328400540983        -8                       3.84607601667859         0.26756968530549496
2.0102397612250478        -8                       5.2158163145966          0.22848501504329652
1.9515480287373919        -8                       6.926208432567616        0.2668281156733138
-4.482995757972045        -8                       1.9744690261730424       0.31999748038032727
-7.999999999999998        -7.999999999999998       5.128205128205133        0.36339130465344077
-5.800786086990058        -8                       4.006463218196776        0.33842370984723746
-3.2686633564298297       -8                       4.160269695150509        0.3243934561766774
-1.0269477883073552       -8                       4.034277380187001        0.32473835179974175
-1.9623631158265926       -8                       6.3043447651149          0.3737399820238805
-4.191857806960449        -8                       5.720834870997349        0.29276811693765425
-5.941895733753852        -8                       6.553042846969359        0.3459907895278405
-8                        -8                       7.692307692307701        0.30316324401902645
5.746647837406632         -8                       6.703549938356201        0.373607915860903
8                         -8                       7.692307692307701        0.3658264841146878
0.35329094980003717       -8                       5.703356428415108        0.30876626187015194
5.786728177056364         -8                       8.98045414211257         0.3591904849471849
3.712297517589745         -8                       7.883722758340506        0.3239429250751055
0.08063597291763536       -8                       7.893415661345915        0.33853970302000236
1.8957387492873694        -8                       9.105278866375667        0.3238878965051513
-1.7990334866822177       -8                       8.98930315195119         0.3520022277341041
-3.882628231042071        -8                       7.79608719775009         0.3593574496565836
-5.776102277530526        -8                       8.974358974358987        0.3849509487562655
-7.999999999999998        -7.999999999999998       10.256410256410268       0.35736834021706754
7.999999999999998         -7.999999999999998       10.256410256410268       0.35172602307740747
0.08321872793017349       -8                       10.247747910984774       0.3274977441294861
-3.5522045550610564       -8                       10.25641025641022        0.3719062937845834
3.7540090134038953        -8                       10.312804120893881       0.3400059928863375
5.776102277530514         -8                       11.538461538461497       0.35967494027797103
8                         -8                       12.820512820512837       0.3299744959770871
1.920430445089273         -8                       11.511182428211564       0.3347753920368903
-1.721732308063384        -8                       11.505753302241995       0.33115714541263397
3.7215627568434164        -8                       12.742421963606777       0.3551781040117217
5.776102277530524         -8                       14.10256410256412        0.35667956746598645
-8                        -8                       12.820512820512837       0.3004842255426488
-5.776102277530514        -8                       11.538461538461497       0.39071939674135137
-3.5522045550610244       -8                       12.82051282051282        0.3499782135358429
-5.776102277530524        -8                       14.10256410256412        0.333050898335904
-8.000000000000002        -8.000000000000002       15.384615384615401       0.26584676386640305
8.000000000000002         -8.000000000000002       15.384615384615401       0.28932615372210324
0.10906543442189731       -8                       12.747966585779945       0.3530945258018088
1.9364541467296488        -8                       13.992417313189275       0.36155534788105603
-1.7164563219627242       -8                       14.055129777032294       0.34191073164409486
-3.552204555061049        -8                       15.384615384615397       0.3509041148231122
-5.776102277530525        -8                       16.66666666666668        0.3196476848881398
-7.999999999999998        -7.999999999999998       17.948717948717967       0.23097912224388592
3.830218715012013         -8                       15.31543874986767        0.34673790583837777
5.776102277530526         -8                       16.66666666666665        0.30245241885129975
7.999999999999998         -7.999999999999998       17.948717948717967       0.25078716793041345
0.11557740468984257       -8                       15.291572288592548       0.3529424583466045
-1.7161987618227952       -8                       16.612671663328694       0.3550555706074115
1.956750886565821         -8                       16.551980510810793       0.33456233200089464
0.11902771243354238       -8                       17.84529448682055        0.32018258290294604
5.776102277530526         -8                       19.230769230769205       0.2835955206457309
8.000000000000002         -8.000000000000002       20.51282051282054        0.19507077284670507
3.82120332197573          -8                       17.85285757683457        0.33631179401313593
-3.5522045550610617       -8                       17.948717948717956       0.352354382516463
-1.7137574578770955       -8                       19.158821245964617       0.3285534322166836
-5.776102277530526        -8                       19.230769230769205       0.295084135759115
-8.000000000000002        -8.000000000000002       20.51282051282054        0.21374626475938255
5.776102277530514         -8                       21.79487179487179        0.21557210114812755
8                         -8                       23.0769230769231         0.1902836760792935
3.827588452737939         -8                       20.424864055639635       0.30228500289038984
1.9592042811756978        -8                       19.11195645635906        0.3178486589855349
0.11388093783221721       -8                       20.406358326216466       0.32939113887774085
-3.552204555061035        -8                       20.51282051282051        0.3094853833917375
-8                        -8                       23.0769230769231         0.17913373048574546
-5.776102277530514        -8                       21.79487179487179        0.25848129052837415
-1.7158245672928683       -8                       21.720907031230354       0.30746800783294975
-3.552204555061007        -8                       23.076923076923066       0.27431244245987013
1.9683460160034087        -8                       21.690517329062157       0.3057519055042159
-5.776102277530514        -8                       24.35897435897445        0.22337572407098874
-8                        -8                       25.641025641025678       0.1745527468826011
5.776102277530514         -8                       24.358974358974343       0.20043719728882395
8                         -8                       25.641025641025678       0.17958041066114647
3.8409965569192366        -8                       22.996648971229906       0.2446555019246133
3.8139511220927034        -8                       25.54979854957693        0.21099816202440524
1.9599103186030256        -8                       24.245891710985077       0.26533672389384183
0.12141596161162305       -8                       22.979018696188614       0.30382956933865585
-1.7158142645122005       -8                       24.299276501019442       0.26415083012093726
-5.776102277530527        -8                       26.923076923076938       0.186856345449136
-7.9999999999999964       -7.9999999999999964      28.205128205128236       0.14809218747637162
-3.552204555061067        -8                       25.641025641025685       0.23001547822463508
0.1199839558149276        -8                       25.547111026387846       0.24141007841320739
5.776102277530525         -8                       26.923076923076962       0.1848528224955417
7.9999999999999964        -7.9999999999999964      28.205128205128236       0.13889168063466115
1.9554241446733496        -8                       26.798902917950866       0.1992605245547897
3.8271474989923147        -8                       28.119639533375          0.17361405363879434
5.776102277530525         -8                       29.487179487179517       0.15036336050827556
7.999999999999998         -7.999999999999998       30.7692307692308         0.1408950244896078
-1.7170846777242286       -8                       26.86446427355378        0.23237291687161207
-7.999999999999998        -7.999999999999998       30.7692307692308         0.11524074089409286
-5.776102277530525        -8                       29.487179487179517       0.13934209695079522
-3.5522045550610386       -8                       28.20512820512824        0.16992987916618538
0.12251723506813761       -8                       28.111180961120823       0.20866433147521882
-1.7127913733278994       -8                       29.417414145291467       0.1914203150539451
1.9654201059302296        -8                       29.37418067478721        0.1693856711907171
3.842326917971946         -8                       30.6902552837649         0.1409924557944964
-3.5522045550610493       -8                       30.769230769230795       0.15156759734244177
-5.776102277530525        -8                       32.05128205128208        0.13189049824326474
-8                        -8                       33.33333333333337        0.11992682912360725
0.12415125504244351       -8                       30.665012728753503       0.17441505967071613
5.776102277530526         -8                       32.05128205128205        0.13063084074079231
8                         -8                       33.33333333333337        0.10682507328024221
-1.7147735591435378       -8                       31.989515432623254       0.1626604996708376
-3.5522045550610444       -8                       33.33333333333336        0.14185613929289598
-1.7206450309432295       -8                       34.553326244526296       0.13217942489296183
3.81413393100206          -8                       33.24205790336339        0.11700886567575246
1.9636733602205165        -8                       31.935109887738136       0.13156036963874054
0.11704197295649266       -8                       33.22043931956401        0.1387521449346138
-5.776102277530514        -8                       34.615384615384635       0.12675595428139994
-8                        -8                       35.89743589743594        0.10286769399112226
5.776102277530514         -8                       34.615384615384635       0.09845352724988331
8                         -8                       35.89743589743594        0.09849712947332358
3.8245336475434266        -8                       35.80994279947316        0.11100129376201147
5.776102277530525         -8                       37.179487179487225       0.09954477897795029
8                         -8                       38.4615384615385         0.08712200593658816
3.7380049160844386        -8                       38.33846153846161        0.10987496199432177
-8                        -8                       38.4615384615385         0.07501026404574097
-5.776102277530525        -8                       37.179487179487225       0.10088501580388086
-5.776102277530519        -8                       39.74358974358978        0.07384082220977713
5.776102277530521         -8                       39.74358974358978        0.09011172286528875
-3.5522045550610333       -8                       35.89743589743595        0.1191099213978682
0.10440329570126439       -8                       35.78182349600478        0.12688265793127604
-1.7365953237776353       -8                       37.0988603242147         0.11387038152552924
1.9332011136432354        -8                       37.056777890766206       0.11393677338032408
1.956694130358812         -8                       34.498974464209375       0.12096005848314328
8                         -8                       41.02564102564108        0.08591905647054565
0.07403290545858399       -8                       38.3203691500474         0.10745280123204796
-3.7130064962925378       -8                       38.42658851973195        0.10402643186390266
-8                        -8                       41.02564102564108        0.05146285994750211
3.7380049160844417        -8                       40.90256410256419        0.08826257825242623
-1.8004777585988698       -8                       39.63972468587092        0.09931559530439743
1.9015377867128898        -8                       39.591095896400894       0.09842339702524348
0.06181159780691248       -8                       40.84401738971057        0.0939142707860054
-5.776102277530526        -8                       42.30769230769238        0.06079929126758372
-3.7123812543917154       -8                       40.98967952667729        0.08124606354936624
1.895086369234431         -8                       42.14912671713835        0.0791617798538685
3.738004916084441         -8                       43.46666666666679        0.06380601762158297
-8                        -8                       43.58974358974364        0.059254504451925684
-5.776102277530519        -8                       44.87179487179493        0.06756615731542852
5.776102277530527         -8                       42.307692307692356       0.0780846059601261
8                         -8                       43.58974358974364        0.06962085409489352
5.776102277530519         -8                       44.87179487179493        0.05969455097410576
-1.8051557205423947       -8                       42.20296932394816        0.07579323139001194
0.05402429069179249       -8                       43.40742985944475        0.074015168915765
-3.6910011087671943       -8                       43.55849137630719        0.07105158729137033
-8                        -8                       46.1538461538462         0.06240417400435192
8                         -8                       46.1538461538462         0.05344825104234933
3.738004916084439         -8                       46.030769230769344       0.05054127096578311
-1.8082720204042495       -8                       44.76626900854439        0.05828458278783081
1.892821011268893         -8                       44.713063643202574       0.060160608473324474
0.052158836996461844      -8                       45.97115385276016        0.060943005343351946
-5.776102277530526        -8                       47.43589743589749        0.05779087478315977
-3.7136555732676797       -8                       46.11627723992249        0.061188219439237156
1.879646738521794         -8                       47.25323553243599        0.04729027212608519
3.7380049160844395        -8                       48.5948717948719         0.047774697181688836
-8                        -8                       48.71794871794877        0.055348658223852154
-5.776102277530514        -8                       50.00000000000004        0.050343563865894746
5.776102277530526         -8                       47.43589743589749        0.05560386996027592
8                         -8                       48.71794871794877        0.04877114704400948
5.776102277530513         -8                       50.000000000000064       0.04873200324351137
-1.807397088807784        -8                       47.32942523490056        0.058406890462272126
0.052732904668664204      -8                       48.53506883912508        0.055182095455216046
-3.745135709791313        -8                       48.67278774031427        0.052299977322344454
-8                        -8                       51.28205128205134        0.0451302806246709
8                         -8                       51.28205128205134        0.05010654507285429
3.738004916084436         -8                       51.158974358974476       0.03753127988889872
-1.8188325682874993       -8                       49.89169049668776        0.055339183479717634
1.8796058291287747        -8                       49.817306330178866       0.046129703006951316
0.049068507565419146      -8                       51.10604397053336        0.054202129192999965
-5.776102277530525        -8                       52.56410256410264        0.04451720855704067
-3.7192109345474016       -8                       51.2440318130724         0.04489207730651876
1.8822826937231432        -8                       52.387899162366594       0.036743937490540404
3.738004916084439         -8                       53.72307692307707        0.040308374736128326
-8                        -8                       53.846153846153896       0.03369970972799671
-5.776102277530521        -8                       55.128205128205195       0.042364755541937894
5.776102277530526         -8                       52.56410256410264        0.04984402101328364
8                         -8                       53.846153846153896       0.0502369960189823
5.776102277530519         -8                       55.128205128205195       0.04559831008780604
-1.8163666973574344       -8                       52.45666126985513        0.04132558986757314
0.04762510966065925       -8                       53.67222613577223        0.035495405900609914
-3.7192094931649464       -8                       53.80830630948121        0.03744615751541235
-8                        -8                       56.410256410256466       0.04374168772533665
8                         -8                       56.410256410256466       0.037066222586751796
3.738004916084442         -8                       56.28717948717963        0.03208262742800599
-1.8138408946511917       -8                       55.020280691438494       0.03180344285401536
1.8864013985029755        -8                       54.9630891066204         0.031155326552633093
0.0403788086970458        -8                       56.258197748145754       0.03321829077118208
-5.776102277530525        -8                       57.69230769230778        0.03761996608243046
-3.7185450841743695       -8                       56.37222818744423        0.0357658751745449
5.776102277530525         -8                       57.69230769230778        0.03600277769924784
8                         -8                       58.97435897435903        0.03919419141811565
3.738004916084443         -8                       58.85128205128218        0.02875815093234443
1.8843285166570278        -8                       57.51542157901107        0.031413082761767075
-8                        -8                       58.97435897435903        0.04373447605037831
-5.776102277530525        -8                       60.256410256410334       0.037296305253624644
5.776102277530526         -8                       60.256410256410305       0.03400459261769451
-1.8245352842721374       -8                       57.58665976833659        0.030420976227887083
0.03840753766844962       -8                       58.826135885578125       0.02808431398799161
-3.7180422825573185       -8                       58.93618978380886        0.0294201804920444
-8                        -8                       61.5384615384616         0.04630932539750696
8                         -8                       61.5384615384616         0.03563033643799827
3.738004916084444         -8                       61.41538461538474        0.027321176053824652
-1.8105366989972946       -8                       60.14772975529965        0.02585280053565288
1.887304067435874         -8                       60.08268175134639        0.030002203276776027
0.0535058164901816        -8                       61.36612471132928        0.029063997201816655
-5.776102277530519        -8                       62.82051282051292        0.03958627711605564
-3.717773350464043        -8                       61.500369270247674       0.02804886475036887
5.776102277530521         -8                       62.82051282051286        0.03476234079833652
8                         -8                       64.10256410256417        0.03696249571311998
3.7380049160844373        -8                       63.979487179487286       0.026131265056304212
1.8824044223090861        -8                       62.63652891174208        0.024314871938866982
-8                        -8                       64.10256410256417        0.037059922939283486
-5.776102277530514        -8                       65.38461538461546        0.03476120352204822
5.776102277530514         -8                       65.38461538461546        0.029412770011475697
-1.8115140867146753       -8                       62.7135155972935         0.029315420699456547
8                         -8                       66.66666666666673        0.030771484875480662
0.04657919364945373       -8                       63.93543895742442        0.033026318179343254
-3.7151263087981583       -8                       64.06483214538041        0.027706471433466107
-8                        -8                       66.66666666666673        0.02904176104372745
3.7380049160844333        -8                       66.54358974358989        0.02591936624043391
-1.8125170056119124       -8                       65.27845774696345        0.022230694554465264
1.879438984053465         -8                       65.2095196074543         0.025601603979800828
0.042124315380764894      -8                       66.48550378611553        0.023391651564674033
-5.7761022775305255       -8                       67.94871794871804        0.025079342423961717
-3.693058412433663        -8                       66.63337299282763        0.02025734397982662
5.776102277530525         -8                       67.94871794871804        0.024824315314139186
8                         -8                       69.2307692307693         0.03348623088909194
3.7380049160844373        -8                       69.10769230769246        0.019731389300420534
1.8683100900738199        -8                       67.76112617175414        0.02397619364799204
-8                        -8                       69.2307692307693         0.023089007021275698
-5.776102277530514        -8                       70.51282051282061        0.02369664601870079
5.776102277530513         -8                       70.5128205128206         0.026130176959952654
8                         -8                       71.79487179487188        0.031823963816611504
-1.8200252330299218       -8                       67.83681060341897        0.015122873537331794
0.012894125852985994      -8                       69.04553646876262        0.019153935960595985
-3.717367602065906        -8                       69.19104076292797        0.01664225975349339
-1.828850018200784        -8                       70.39477500219124        0.01781654859440348
-8                        -8                       71.79487179487188        0.026874041312096007
3.73800491608444          -8                       71.67179487179503        0.02296363551251052
1.7928077351500527        -8                       70.20512820512839        0.018251598852596685
-0.006353049097747032     -8                       71.58761165673351        0.020360623908731123
-5.776102277530532        -8                       73.07692307692315        0.027114576698785003
-3.7216578793955275       -8                       71.75380643034516        0.02021329682737748
-8                        -8                       74.35897435897442        0.0260328027755391
1.792807735150056         -8                       72.76923076923094        0.019745606159370467
3.7380049160844404        -8                       74.2358974358976         0.02002938741982602
5.77610227753053          -8                       73.0769230769232         0.02860309369261152
8                         -8                       74.35897435897442        0.030967762029494694
-5.776102277530519        -8                       75.64102564102575        0.02609119740391319
5.776102277530521         -8                       75.6410256410257         0.020245196337999597
8                         -8                       76.92307692307699        0.02407864054882225
-1.8302260287282905       -8                       72.95769509917514        0.0183015554736439
-0.009564709131710813     -8                       74.14784476430394        0.017606392840950686
-3.7224293535966555       -8                       74.31762264156576        0.022463015022811245
-1.828768668130289        -8                       75.52191720022017        0.01683259056978688
-8                        -8                       76.92307692307699        0.02528821778398982
-3.722570110155664        -8                       76.8816636465724         0.020609215234449824
1.7928077351500615        -8                       75.3333333333335         0.013843982234503942
-0.008095706898227917     -8                       76.71168121743865        0.016103268082778472
3.7380049160844435        -8                       76.80000000000014        0.01241878338563035
-5.776102277530526        -8                       78.20512820512829        0.020103610953427695
-7.999999999999998        -7.999999999999998       79.48717948717956        0.017657515672349484
5.776102277530523         -8                       78.20512820512829        0.019080061546012873
7.999999999999998         -7.999999999999998       79.48717948717956        0.02477851170183805
1.7928077351500566        -8                       77.89743589743605        0.009347989525089008
3.7380049160844404        -8                       79.3641025641027         0.015838569981686975
-1.81818045108043         -8                       78.08819700275501        0.020464477835906793
-3.7225960613175775       -8                       79.44575310453084        0.014530612269651749
-1.828838877846307        -8                       80.65006301441228        0.017989867294917854
-0.007863211331185838     -8                       79.27572878188207        0.016802433108461506
5.776102277530523         -8                       80.76923076923084        0.020184975471683957
-5.776102277530525        -8                       80.76923076923086        0.014722292725854723
-8                        -8                       82.0512820512821         0.01695759076592179
8                         -8                       82.0512820512821         0.01302392468453577
1.7928077351500582        -8                       80.46153846153861        0.013199071316092546
-0.009897343831895        -8                       81.83938690236184        0.014424197698830672
3.738004916084444         -8                       81.92820512820526        0.01734900597118346
1.7928077351500615        -8                       83.02564102564116        0.013474412006931849
-3.7226008788257907       -8                       82.00985291977818        0.01260068415096427
-1.8306170086704583       -8                       83.21379134198597        0.014447768119158391
5.776102277530525         -8                       83.33333333333341        0.014612543472074095
7.999999999999998         -7.999999999999998       84.61538461538467        0.015614596535565664
3.7380049160844435        -8                       84.4923076923078         0.014661608561638022
-7.999999999999998        -7.999999999999998       84.61538461538467        0.018067091809118682
-5.776102277530526        -8                       83.3333333333334         0.016905734466706176
-7.999999999999998        -7.999999999999998       87.17948717948723        0.01320464538383992
-5.776102277530525        -8                       85.89743589743597        0.015722826809560504
-3.722601776633923        -8                       84.57395491663601        0.014334955288485366