% Model:              Cav_Hex_Unif_flux_v5.1.2 - Wall Distn.mph
% Version:            COMSOL 5.5.0.359
% Date:               May 16 2022, 16:44
% Dimension:          3
% Nodes:              2840
% Expressions:        1
% Description:        Surface
% x                       y                        z                        Color
-8                        5.714285714285713        0                        0.09426610121986008
-8                        8                        0                        0.07328229256363333
-8                        6.399613512553145        1.709006963007598        0.07949916532707954
-8                        4.482995757972045        1.9744690261730424       0.09625084937699184
-7.999999999999998        3.4285714285714284       0                        0.10311801886118317
-8                        2.2857142857142847       2.1395157600494485       0.10206387860362783
-8                        8                        2.5641025641025665       0.08572735412233178
-8                        -5.714285714285714       0                        0.107881415804348
-8                        -5.754801530403203       1.8820578931072252       0.0984744380041101
-8                        -8                       0                        0.09875683814702182
-8                        -8                       2.5641025641025665       0.10994221926611177
-7.999999999999998        -3.428571428571428       0                        0.1031958992626194
-8                        -3.9609101705761747      2.524278643727529        0.08245534691485831
-7.999999999999998        1.142857142857142        0                        0.11164317277732287
-8.000000000000002        -1.1428571428571426      0                        0.10930365581439272
-8                        -2.1043988840981296      2.225593583014818        0.08546247247846865
-8                        0                        2.1395157600494485       0.10180455745745239
-7.999999999999998        7.999999999999998        5.128205128205133        0.10782328414670588
-8                        5.8007860869900565       4.006463218196776        0.10460151601126337
-8                        1.0269477883073517       4.034277380187001        0.1039745446704838
-8                        3.268663356429825        4.160269695150487        0.10517602461067722
-7.999999999999998        -7.999999999999998       5.128205128205133        0.11859598815770561
-8                        -5.4484138510570155      4.107507802736166        0.10607992401536069
-8                        -3.041207673239231       3.888516329869307        0.06731810993287601
-8                        -5.746647837406634       6.703549938355801        0.11208493071758052
-8                        -3.6408576312798684      5.745116325733803        0.08657136388169066
-8                        -8                       7.692307692307701        0.10533210958330501
-8                        4.191857806960444        5.720834870997327        0.09824986344263369
-8                        5.94189573375385         6.553042846969359        0.10826994627356358
-8                        8                        7.692307692307701        0.11089100623622307
-8                        -5.786728177056389       8.980454142114658        0.10518117413950905
-8                        -3.7122975175897484      7.883722758340506        0.09453781588116605
-8                        -1.0666328400541012      3.8460760166785235       0.07550160940673549
-8                        -1.9515480287373954      6.926208432567616        0.08013229745181888
-8                        -2.010239761225051       5.2158163145966          0.06689336013867073
-8                        1.962363115826589        6.3043447651149          0.10700029911928535
-8                        -0.3532909498000407      5.703356428415108        0.09404965332418443
-8                        -0.08063597291763759     7.893415661345959        0.09235187454682993
-8                        3.882628231042066        7.79608719775009         0.1034062298131377
-8                        -1.895738749287311       9.105278866375667        0.0838781502024712
-7.999999999999998        -7.999999999999998       10.256410256410268       0.09189534411631789
-8                        1.799033486682216        8.98930315195119         0.10093217234317038
-8                        3.5522045550610564       10.25641025641022        0.10946451669789836
-8                        5.776102277530525        8.974358974358987        0.11385122793868463
-7.999999999999998        7.999999999999998        10.256410256410268       0.11641511457774563
-8                        -0.08321872793017526     10.247747910984728       0.0914608952906215
-8                        1.7217323080633822       11.505753302241995       0.09316226876628818
-8                        -5.776102277530514       11.538461538461497       0.09969795190269505
-8                        -8                       12.820512820512837       0.0984916294307177
-8                        -3.7540090134038966      10.312804120893947       0.09519302456337414
-8                        -1.9204304450892735      11.511182428211475       0.09627594155617214
-8                        3.5522045550610244       12.82051282051282        0.10858415126654641
-8                        8                        12.820512820512837       0.11929307630722819
-8                        5.776102277530514        11.538461538461497       0.12525488221247724
-8.000000000000002        8.000000000000002        15.384615384615401       0.09371529370880817
-8                        5.776102277530524        14.10256410256412        0.11482020739283967
-8                        -5.776102277530524       14.10256410256412        0.11744450465115357
-8.000000000000002        -8.000000000000002       15.384615384615401       0.10643302982243104
-8                        -3.721562756843417       12.74242196360682        0.11075182636399163
-8                        -0.10906543442189731     12.747966585779945       0.09877831295882544
-8                        -1.9364541467296488      13.992417313189275       0.11148004614876787
-8                        1.7164563219627242       14.05512977703225        0.09035167734571237
-8                        3.552204555061049        15.384615384615397       0.11192942473656885
-8                        5.776102277530525        16.66666666666668        0.11022779350984759
-7.999999999999998        7.999999999999998        17.948717948717967       0.08041886955339513
-8                        -3.830218715012013       15.31543874986767        0.11769396758398908
-8                        -5.776102277530526       16.66666666666665        0.1079965266775957
-7.999999999999998        -7.999999999999998       17.948717948717967       0.09945564039418746
-8                        -0.11557740468984123     15.291572288592437       0.10428675846018749
-8                        -1.9567508865658196      16.55198051081075        0.10489035512087015
-8                        1.7161987618227972       16.61267166332867        0.10061499128393102
-8                        -0.11902771243354195     17.84529448682051        0.08930452810707618
-8                        1.7137574578770973       19.158821245964575       0.0941968023927734
-8                        3.5522045550610617       17.948717948717956       0.11883982880595954
-8                        5.776102277530526        19.230769230769205       0.11098248547690008
-8.000000000000002        8.000000000000002        20.51282051282054        0.09450992363277992
-8                        -3.82120332197573        17.85285757683457        0.10559879895576767
-8                        -5.776102277530526       19.230769230769205       0.1044020322727704
-8.000000000000002        -8.000000000000002       20.51282051282054        0.10448302483741238
-8                        -5.776102277530514       21.79487179487179        0.09768247371527067
-8                        -8                       23.0769230769231         0.08443068331054682
-8                        -3.827588452737939       20.424864055639635       0.10059993292528897
-8                        -1.9592042811756973      19.11195645635906        0.08965420347286396
-8                        -0.11388093783221541     20.406358326216424       0.08467017213414818
-8                        8                        23.0769230769231         0.09904997129782277
-8                        5.776102277530514        21.79487179487179        0.11103225602693212
-8                        3.552204555061035        20.51282051282044        0.11122754334336664
-8                        1.7158245672928751       21.720907031230286       0.08671915482353192
-8                        -1.9683460160034083      21.690517329062086       0.08750950589858748
-8                        5.776102277530514        24.358974358974343       0.10004072169211882
-8                        8                        25.641025641025678       0.10034640903490293
-8                        3.5522045550610386       23.076923076923066       0.102056669419131
-8                        -5.776102277530514       24.358974358974343       0.09454166690362668
-8                        -8                       25.641025641025678       0.09072738835454135
-8                        -3.8409965569192366      22.996648971229906       0.09380146991856642
-8                        -3.8139511220927034      25.549798549576906       0.09358480988967972
-8                        -1.959910318603026       24.24589171098504        0.0849384742908859
-8                        -0.12141596161162171     22.979018696188547       0.08149291848721023
-8                        1.715814264512199        24.299276501019417       0.09118778028193848
-8                        -5.776102277530527       26.923076923076938       0.08603482183753014
-7.9999999999999964       -7.9999999999999964      28.205128205128236       0.07706696958829269
-8                        3.552204555061025        25.64102564102566        0.10037942041700264
-8                        5.776102277530525        26.923076923076962       0.10062665036374885
-7.9999999999999964       7.9999999999999964       28.205128205128236       0.08597184245685545
-8                        -0.11998395581493027     25.547111026387846       0.08212442455945745
-8                        -1.9554241446733513      26.798902917950866       0.09058366137175396
-8                        -3.8271474989923147      28.119639533375          0.07880737817175187
-8                        -5.776102277530523       29.48717948717951        0.07441774554824278
-7.999999999999998        -7.999999999999998       30.7692307692308         0.08268036367778053
-8                        1.7170846777242217       26.86446427355378        0.08943144432143586
-8                        -3.842326917971946       30.690255283764813       0.07181277114471966
-8                        3.5522045550610493       28.20512820512824        0.0976154915687019
-7.999999999999998        7.999999999999998        30.7692307692308         0.09117101439357282
-8                        5.776102277530525        29.487179487179517       0.10027875599850429
-8                        -1.9654201059302314      29.37418067478721        0.08848971574544716
-8                        -0.12251723506813804     28.111180961120823       0.08598585000088686
-8                        1.7127913733278994       29.417414145291467       0.09128733781841879
-8                        -5.776102277530526       32.05128205128205        0.07628524116024014
-8                        -8                       33.33333333333337        0.07042216391478094
-8                        3.5522045550610493       30.769230769230795       0.09497673366547166
-8                        5.776102277530525        32.05128205128208        0.10197751675292771
-8                        8                        33.33333333333337        0.09602768227865204
-8                        -3.8141339310020586      33.24205790336337        0.08869683165418556
-8                        -1.9636733602205165      31.935109887738086       0.09205259850724912
-8                        -0.12415125504244351     30.665012728753503       0.09896295322610606
-8                        1.7147735591435378       31.98951543262321        0.09318136296213303
-8                        3.5522045550610444       33.33333333333336        0.09055557244506486
-8                        -0.11704197295649266     33.22043931956401        0.09397737574751935
-8                        -5.776102277530509       34.61538461538463        0.08170747623320589
-8                        -8                       35.89743589743594        0.0653928879903373
-8                        -3.824533647543424       35.80994279947316        0.09110917113725253
-8                        5.776102277530514        34.615384615384635       0.09030323056894884
-8                        8                        35.89743589743594        0.06993493093403182
-8                        1.7206450309432313       34.553326244526296       0.08563125224713279
-8                        -1.9566941303588108      34.498974464209375       0.09553853888617948
-8                        -5.776102277530525       37.179487179487225       0.072783070477249
-8                        -8                       38.4615384615385         0.05817844534538896
-8                        -3.738004916084436       38.33846153846161        0.08098089891841485
-8                        -1.9332011136432339      37.056777890766206       0.08516570094172062
-8                        5.776102277530525        37.179487179487225       0.06671044908494779
-8                        8                        38.4615384615385         0.0550466504904803
-8                        5.776102277530519        39.74358974358978        0.06118587220659585
-8                        -5.776102277530519       39.74358974358978        0.06803358778289623
-8                        3.5522045550610333       35.89743589743595        0.08962786508355593
-8                        -0.10440329570126394     35.78182349600478        0.08097613425829293
-8                        1.7365953237776353       37.0988603242147         0.08727040283864373
-8                        -0.0740329054585831      38.3203691500474         0.07785899620925336
-8                        3.7130064962925395       38.42658851973195        0.08105886183695693
-8                        -8                       41.02564102564108        0.05740679254547489
-8                        8                        41.02564102564108        0.055966589140155426
-8                        -3.7380049160844404      40.90256410256416        0.07811778082482627
-8                        -1.901537786712888       39.591095896400894       0.08362323939561879
-8                        1.8004777585988716       39.63972468587092        0.08360233816045955
-8                        -0.061811597806911596    40.84401738971057        0.08079087937119865
-8                        3.7123812543917154       40.98967952667729        0.07171848182042902
-8                        5.776102277530526        42.30769230769238        0.062428477024611684
-8                        -5.776102277530525       42.30769230769238        0.06226747924547508
-8                        -8                       43.58974358974364        0.05262324709722784
-8                        -3.7380049160844377      43.46666666666679        0.06983709907723344
-8                        -1.8950863692344304      42.14912671713831        0.07234613741255508
-8                        8                        43.58974358974364        0.0638510253312801
-8                        5.776102277530519        44.87179487179493        0.06701837400990619
-8                        -5.776102277530519       44.87179487179493        0.05981125039605406
-8                        1.8051557205423947       42.20296932394816        0.08329916209549452
-8                        -0.05402429069179204     43.40742985944477        0.07385865736567143
-8                        3.6910011087671943       43.55849137630719        0.07719482991171778
-8                        -8                       46.1538461538462         0.055025604485482715
-8                        8                        46.1538461538462         0.06156754971020476
-8                        -3.7380049160844395      46.030769230769344       0.06619482888223376
-8                        -1.892821011268893       44.713063643202574       0.07310319986165927
-8                        1.8082720204042495       44.76626900854439        0.08221095984964126
-8                        -0.052158836996461844    45.97115385276016        0.07863284707260985
-8                        3.7136555732676797       46.11627723992249        0.07061193410779841
-8                        5.776102277530526        47.43589743589749        0.05602326279072243
-8                        -5.776102277530525       47.43589743589749        0.061029570960541214
-8                        -8                       48.71794871794877        0.05586044391962771
-8                        -3.738004916084439       48.5948717948719         0.059195770344621736
-8                        -1.8796467385217939      47.25323553243601        0.07217550641096501
-8                        8                        48.71794871794877        0.04205383944108935
-8                        5.776102277530514        50.00000000000004        0.04831931884827806
-8                        -5.776102277530513       50.000000000000064       0.05796402593414517
-8                        1.8073970888077842       47.329425234900604       0.07136953039256122
-8                        -0.052732904668664204    48.5350688391251         0.0652208823870865
-8                        3.745135709791313        48.67278774031427        0.06108235189936003
-8                        -8                       51.28205128205134        0.05347067635160687
-8                        8                        51.28205128205134        0.04150611547355951
-8                        -3.738004916084438       51.158974358974525       0.05148044019149082
-8                        -1.8796058291287763      49.81730633017889        0.05931030094875686
-8                        1.8188325682874993       49.89169049668779        0.059909960689552434
-8                        -0.049068507565419146    51.10604397053336        0.05942210554711331
-8                        3.7192109345474016       51.2440318130724         0.056027908855804616
-8                        5.776102277530525        52.56410256410264        0.04897421885746169
-8                        -5.776102277530525       52.56410256410264        0.05237064925759367
-8                        -8                       53.846153846153896       0.05079471194676193
-8                        -1.8822826937231445      52.387899162366594       0.057653656087645166
-8                        -3.7380049160844404      53.72307692307707        0.05002840751898818
-8                        8                        53.846153846153896       0.04169571779552428
-8                        5.776102277530519        55.128205128205195       0.05061756889991481
-8                        -5.776102277530519       55.128205128205195       0.047457018471953716
-8                        1.8163666973574344       52.45666126985513        0.05300450479608649
-8                        -0.04762510966065925     53.67222613577219        0.05041260453976453
-8                        3.719209493164947        53.80830630948126        0.05206790126274528
-8                        -8                       56.410256410256466       0.04563398351273914
-8                        8                        56.410256410256466       0.0430411854539729
-8                        -3.7380049160844417      56.28717948717963        0.05182025107402444
-8                        -1.8864013985029755      54.9630891066204         0.05134049594407556
-8                        1.8138408946511915       55.020280691438515       0.04247936531687208
-8                        -0.040378808697045354    56.258197748145754       0.04646438089831231
-8                        3.7185450841743712       56.37222818744425        0.04645464261856155
-8                        5.776102277530526        57.69230769230775        0.04215678809951886
-8                        -5.776102277530525       57.69230769230778        0.042777760444964945
-8                        -8                       58.97435897435903        0.0396308673616349
-8                        -1.8843285166570252      57.51542157901107        0.05048386562770022
-8                        -3.7380049160844417      58.85128205128218        0.0387655273461549
-8                        8                        58.97435897435903        0.03814752882270569
-8                        5.776102277530525        60.256410256410334       0.03773556243746289
-8                        -5.776102277530525       60.256410256410334       0.037502550873000876
-8                        1.8245352842721374       57.58665976833659        0.04203074928288376
-8                        -0.03840753766844829     58.826135885578125       0.04544598368959687
-8                        3.7180422825573203       58.93618978380886        0.03880824677762277
-8                        -8                       61.5384615384616         0.034136836168391645
-8                        8                        61.5384615384616         0.03620477247783793
-8                        -3.7380049160844404      61.41538461538476        0.0421344886060292
-8                        -1.8873040674358725      60.08268175134639        0.04129779817701817
-8                        1.8105366989972946       60.14772975529965        0.03838729117102407
-8                        -0.053505816490180276    61.36612471132928        0.03396728096455937
-8                        3.717773350464043        61.500369270247674       0.037362052006711784
-8                        5.776102277530519        62.82051282051292        0.032890904814574316
-8                        -5.776102277530519       62.82051282051292        0.039995550540325775
-8                        -8                       64.10256410256417        0.032365519027280396
-8                        -1.882404422309085       62.6365289117421         0.04282419217784086
-8                        -3.7380049160844364      63.979487179487315       0.0402081364340474
-8                        8                        64.10256410256417        0.0249621093884738
-8                        5.776102277530514        65.38461538461546        0.030199165857346607
-8                        -5.776102277530514       65.38461538461546        0.03451692472705672
-8                        1.8115140867146753       62.71351559729347        0.031091264206497927
-8                        -0.04657919364945373     63.9354389574244         0.03510810212549141
-8                        3.7151263087981583       64.06483214538041        0.03658142032642498
-8                        -8                       66.66666666666673        0.027282872603161035
-8                        8                        66.66666666666673        0.029721769441523757
-8                        -3.7380049160844364      66.5435897435899         0.030033722347076682
-8                        -1.8794389840534655      65.2095196074543         0.03864659622263609
-8                        1.8125170056119124       65.27845774696345        0.031550735642678476
-8                        -0.04212431538076622     66.48550378611553        0.032644676804551444
-8                        3.693058412433663        66.63337299282763        0.03497302689859781
-8                        5.7761022775305255       67.94871794871804        0.03122425972650343
-8                        -5.776102277530525       67.94871794871804        0.026136004538763483
-8                        -8                       69.2307692307693         0.026693227973378725
-8                        -1.8683100900738228      67.76112617175414        0.029687586316075164
-8                        -3.7380049160844373      69.10769230769247        0.023920663260642423
-8                        8                        69.2307692307693         0.03162617037280931
-8                        5.776102277530514        70.51282051282061        0.0304729969659772
-8                        -5.776102277530514       70.51282051282061        0.02768624017679028
-8                        1.8200252330299218       67.83681060341897        0.02774663978892422
-8                        -0.012894125852987774    69.04553646876262        0.031698835236893534
-8                        3.717367602065906        69.19104076292797        0.03300392441659911
-8                        1.8288500182007825       70.39477500219127        0.03343479148851235
-8                        -8                       71.79487179487188        0.02893734615927919
-8                        8                        71.79487179487188        0.026458168233652584
-8                        -3.7380049160844386      71.67179487179503        0.02968803688861386
-8                        -1.7928077351500546      70.20512820512836        0.031112645229316088
-8                        0.006353049097747032     71.58761165673351        0.030097095118068986
-8                        3.7216578793955275       71.75380643034516        0.028802243694267204
-8                        5.776102277530532        73.07692307692315        0.027942263163875228
-8                        8                        74.35897435897442        0.026125245451998857
-8                        -5.77610227753053        73.0769230769232         0.030783994061257928
-8                        -8                       74.35897435897442        0.03569143519164808
-8                        -1.7928077351500524      72.76923076923094        0.0245488097296217
-8                        -3.7380049160844404      74.2358974358976         0.026184097741821483
-8                        -5.776102277530519       75.64102564102575        0.03274369524756623
-8                        5.776102277530519        75.64102564102575        0.029430924163505155
-8                        1.8302260287282888       72.95769509917514        0.030357817030462548
-8                        0.009564709131710813     74.14784476430394        0.025260074170681403
-8                        3.722429353596654        74.31762264156578        0.02724502554366061
-8                        1.8287686681302873       75.52191720022017        0.029771103870098476
-8                        -8                       76.92307692307699        0.030533162848156686
-8                        8                        76.92307692307699        0.023418306798225055
-8                        3.7225701101556616       76.88166364657245        0.027724742671172312
-8                        -3.7380049160844426      76.80000000000015        0.025245332934596798
-8                        -1.7928077351500602      75.33333333333347        0.02295283377138962
-8                        0.00809570689822614      76.71168121743865        0.02187550752669105
-8                        -5.776102277530523       78.20512820512829        0.025206621758366705
-7.999999999999998        -7.999999999999998       79.48717948717956        0.020106117903547997
-8                        5.7761022775305255       78.2051282051283         0.02424823717551582
-7.999999999999998        7.999999999999998        79.48717948717956        0.028526409257344454
-8                        -1.7928077351500615      77.89743589743603        0.020247367651572826
-8                        -3.738004916084443       79.36410256410271        0.020265495243860576
-8                        1.818180451080428        78.08819700275501        0.022809572687515944
-8                        -5.776102277530525       80.76923076923086        0.018570132812576145
-8                        3.7225960613175757       79.44575310453084        0.02051524169689056
-8                        0.007863211331184061     79.2757287818821         0.015433080379771438
-8                        1.8288388778463072       80.65006301441235        0.01619599378806186
-8                        -8                       82.0512820512821         0.016305500109760413
-8                        5.776102277530525        80.76923076923086        0.025812503333023457
-8                        8                        82.0512820512821         0.023194052935966814
-8                        -3.738004916084444       81.92820512820526        0.020176726015362547
-8                        -1.7928077351500604      80.46153846153861        0.022782250987297147
-8                        0.009897343831895        81.83938690236184        0.022018340628710355
-8                        -1.7928077351500602      83.02564102564116        0.023975484485231482
-8                        -5.776102277530525       83.33333333333341        0.01587474558991848
-7.999999999999998        -7.999999999999998       84.61538461538467        0.01344506308946121
-8                        -3.7380049160844426      84.49230769230782        0.020361995894252582
-8                        3.7226008788257925       82.00985291977824        0.021587594732621035
-8                        1.8306170086704583       83.21379134198598        0.02003349201723131
-8                        -5.776102277530525       85.89743589743597        0.018095466286649618
-7.999999999999998        -7.999999999999998       87.17948717948723        0.019111318175073295
-7.999999999999998        7.999999999999998        84.61538461538467        0.017793380584830435
-8                        5.776102277530525        83.33333333333341        0.02379466073669352