% Model:              Cav_Hex_Unif_flux_v5.1.2 - Wall Distn.mph
% Version:            COMSOL 5.5.0.359
% Date:               May 16 2022, 16:44
% Dimension:          3
% Nodes:              2840
% Expressions:        1
% Description:        Surface
% x                       y                        z                        Color
-8                        5.714285714285713        0                        0.020686504772048923
-8                        8                        0                        0.01612840559489151
-8                        6.399613512553145        1.709006963007598        0.018039402655349916
-8                        4.482995757972045        1.9744690261730424       0.02212524682946827
-7.999999999999998        3.4285714285714284       0                        0.023073944732414368
-8                        2.2857142857142847       2.1395157600494485       0.023674515245007993
-8                        8                        2.5641025641025665       0.019430121034751068
-8                        -5.714285714285714       0                        0.024037217176047503
-8                        -5.754801530403203       1.8820578931072252       0.02237815974288476
-8                        -8                       0                        0.022504884350249863
-8                        -8                       2.5641025641025665       0.02531021808210673
-7.999999999999998        -3.428571428571428       0                        0.02342506247869438
-8                        -3.9609101705761747      2.524278643727529        0.01887523076790986
-7.999999999999998        1.142857142857142        0                        0.02600036510547003
-8.000000000000002        -1.1428571428571426      0                        0.024837591632780567
-8                        -2.1043988840981296      2.225593583014818        0.019416464409630865
-8                        0                        2.1395157600494485       0.02358204290798796
-7.999999999999998        7.999999999999998        5.128205128205133        0.024685564920798375
-8                        5.8007860869900565       4.006463218196776        0.024333683241372615
-8                        1.0269477883073517       4.034277380187001        0.024579533002730112
-8                        3.268663356429825        4.160269695150487        0.024813525885229348
-7.999999999999998        -7.999999999999998       5.128205128205133        0.02774765708624816
-8                        -5.4484138510570155      4.107507802736166        0.024712179993797153
-8                        -3.041207673239231       3.888516329869307        0.015463015803418835
-8                        -5.746647837406634       6.703549938355801        0.02639729772789477
-8                        -3.6408576312798684      5.745116325733803        0.02030785225033232
-8                        -8                       7.692307692307701        0.024674267829850372
-8                        4.191857806960444        5.720834870997327        0.023098977083661966
-8                        5.94189573375385         6.553042846969359        0.0255177751089648
-8                        8                        7.692307692307701        0.026058846735637662
-8                        -5.786728177056389       8.980454142114658        0.024780951333452483
-8                        -3.7122975175897484      7.883722758340506        0.022260527030192045
-8                        -1.0666328400541012      3.8460760166785235       0.017312852839267086
-8                        -1.9515480287373954      6.926208432567616        0.01890745974089586
-8                        -2.010239761225051       5.2158163145966          0.015317039478911804
-8                        1.962363115826589        6.3043447651149          0.025371106963639693
-8                        -0.3532909498000407      5.703356428415108        0.021851007176683424
-8                        -0.08063597291763759     7.893415661345959        0.02190120952378562
-8                        3.882628231042066        7.79608719775009         0.024959277312629067
-8                        -1.895738749287311       9.105278866375667        0.02026141580122326
-7.999999999999998        -7.999999999999998       10.256410256410268       0.02207053314137002
-8                        1.799033486682216        8.98930315195119         0.02517686276050922
-8                        3.5522045550610564       10.25641025641022        0.02685429631952282
-8                        5.776102277530525        8.974358974358987        0.026885339120578066
-7.999999999999998        7.999999999999998        10.256410256410268       0.027059305934701128
-8                        -0.08321872793017526     10.247747910984728       0.02298401782992361
-8                        1.7217323080633822       11.505753302241995       0.023643786028570216
-8                        -5.776102277530514       11.538461538461497       0.024475207519314254
-8                        -8                       12.820512820512837       0.024145188015582145
-8                        -3.7540090134038966      10.312804120893947       0.02291335094767834
-8                        -1.9204304450892735      11.511182428211475       0.02379648127452305
-8                        3.5522045550610244       12.82051282051282        0.02690698729386363
-8                        8                        12.820512820512837       0.029126957703522166
-8                        5.776102277530514        11.538461538461497       0.029632672580700774
-8.000000000000002        8.000000000000002        15.384615384615401       0.024584420038983135
-8                        5.776102277530524        14.10256410256412        0.02860771002716041
-8                        -5.776102277530524       14.10256410256412        0.028190369127624057
-8.000000000000002        -8.000000000000002       15.384615384615401       0.026200812566376252
-8                        -3.721562756843417       12.74242196360682        0.026831776900112323
-8                        -0.10906543442189731     12.747966585779945       0.02475651281703706
-8                        -1.9364541467296488      13.992417313189275       0.02666171432269243
-8                        1.7164563219627242       14.05512977703225        0.02315750707119976
-8                        3.552204555061049        15.384615384615397       0.02760876452905661
-8                        5.776102277530525        16.66666666666668        0.02740467348011144
-7.999999999999998        7.999999999999998        17.948717948717967       0.021227134289553053
-8                        -3.830218715012013       15.31543874986767        0.028368491296985307
-8                        -5.776102277530526       16.66666666666665        0.026678785222278113
-7.999999999999998        -7.999999999999998       17.948717948717967       0.02582037113532921
-8                        -0.11557740468984123     15.291572288592437       0.025747252563419032
-8                        -1.9567508865658196      16.55198051081075        0.026143790111215464
-8                        1.7161987618227972       16.61267166332867        0.025066410263669122
-8                        -0.11902771243354195     17.84529448682051        0.02325633981050185
-8                        1.7137574578770973       19.158821245964575       0.023875075126632103
-8                        3.5522045550610617       17.948717948717956       0.029154847996908945
-8                        5.776102277530526        19.230769230769205       0.02770903200028109
-8.000000000000002        8.000000000000002        20.51282051282054        0.023917411777290412
-8                        -3.82120332197573        17.85285757683457        0.02660130371553839
-8                        -5.776102277530526       19.230769230769205       0.02622712250642395
-8.000000000000002        -8.000000000000002       20.51282051282054        0.026408265537628966
-8                        -5.776102277530514       21.79487179487179        0.024106279673099935
-8                        -8                       23.0769230769231         0.02117150191739255
-8                        -3.827588452737939       20.424864055639635       0.02481391554704171
-8                        -1.9592042811756973      19.11195645635906        0.023291776204298315
-8                        -0.11388093783221541     20.406358326216424       0.02193490597204242
-8                        8                        23.0769230769231         0.0250847160675363
-8                        5.776102277530514        21.79487179487179        0.02748805412329781
-8                        3.552204555061035        20.51282051282044        0.02782477026566631
-8                        1.7158245672928751       21.720907031230286       0.022154818984330655
-8                        -1.9683460160034083      21.690517329062086       0.022891628690958635
-8                        5.776102277530514        24.358974358974343       0.025248098968423397
-8                        8                        25.641025641025678       0.02493843073355877
-8                        3.5522045550610386       23.076923076923066       0.025429505682522797
-8                        -5.776102277530514       24.358974358974343       0.023761032544310407
-8                        -8                       25.641025641025678       0.022375042074447748
-8                        -3.8409965569192366      22.996648971229906       0.02349510184809164
-8                        -3.8139511220927034      25.549798549576906       0.023588871812901507
-8                        -1.959910318603026       24.24589171098504        0.02213811093306416
-8                        -0.12141596161162171     22.979018696188547       0.021557998526003166
-8                        1.715814264512199        24.299276501019417       0.023921739515338308
-8                        -5.776102277530527       26.923076923076938       0.02173320226489114
-7.9999999999999964       -7.9999999999999964      28.205128205128236       0.01954133275423854
-8                        3.552204555061025        25.64102564102566        0.025807873532844864
-8                        5.776102277530525        26.923076923076962       0.025474796224919143
-7.9999999999999964       7.9999999999999964       28.205128205128236       0.021910826980862285
-8                        -0.11998395581493027     25.547111026387846       0.02134685668240177
-8                        -1.9554241446733513      26.798902917950866       0.02296838713371627
-8                        -3.8271474989923147      28.119639533375          0.0203126983549904
-8                        -5.776102277530523       29.48717948717951        0.019153615250854458
-7.999999999999998        -7.999999999999998       30.7692307692308         0.022011234062364732
-8                        1.7170846777242217       26.86446427355378        0.023152249654114096
-8                        -3.842326917971946       30.690255283764813       0.01840323223989569
-8                        3.5522045550610493       28.20512820512824        0.024905465138779944
-7.999999999999998        7.999999999999998        30.7692307692308         0.02351425604232003
-8                        5.776102277530525        29.487179487179517       0.025744421094039655
-8                        -1.9654201059302314      29.37418067478721        0.02243944891920852
-8                        -0.12251723506813804     28.111180961120823       0.021743383792135876
-8                        1.7127913733278994       29.417414145291467       0.023085797420861847
-8                        -5.776102277530526       32.05128205128205        0.019834863165662377
-8                        -8                       33.33333333333337        0.019489481185465955
-8                        3.5522045550610493       30.769230769230795       0.02420174181125111
-8                        5.776102277530525        32.05128205128208        0.025538053644893685
-8                        8                        33.33333333333337        0.02450564725552908
-8                        -3.8141339310020586      33.24205790336337        0.022629673891538346
-8                        -1.9636733602205165      31.935109887738086       0.023630482027253704
-8                        -0.12415125504244351     30.665012728753503       0.025260252780021197
-8                        1.7147735591435378       31.98951543262321        0.023482791052492857
-8                        3.5522045550610444       33.33333333333336        0.02249030387868768
-8                        -0.11704197295649266     33.22043931956401        0.023808959735246753
-8                        -5.776102277530509       34.61538461538463        0.02134124918090971
-8                        -8                       35.89743589743594        0.018251096219652766
-8                        -3.824533647543424       35.80994279947316        0.022588057974712777
-8                        5.776102277530514        34.615384615384635       0.022917268819919987
-8                        8                        35.89743589743594        0.019034884726872623
-8                        1.7206450309432313       34.553326244526296       0.021752116501445398
-8                        -1.9566941303588108      34.498974464209375       0.0236184947728532
-8                        -5.776102277530525       37.179487179487225       0.01953884084650921
-8                        -8                       38.4615384615385         0.01624049370011812
-8                        -3.738004916084436       38.33846153846161        0.020588944873674932
-8                        -1.9332011136432339      37.056777890766206       0.02104579134250133
-8                        5.776102277530525        37.179487179487225       0.018302736182012284
-8                        8                        38.4615384615385         0.015800876926532047
-8                        5.776102277530519        39.74358974358978        0.016740150944173113
-8                        -5.776102277530519       39.74358974358978        0.018310864341534304
-8                        3.5522045550610333       35.89743589743595        0.02228509815183806
-8                        -0.10440329570126394     35.78182349600478        0.020484364824291855
-8                        1.7365953237776353       37.0988603242147         0.021314610098562465
-8                        -0.0740329054585831      38.3203691500474         0.01927346074875971
-8                        3.7130064962925395       38.42658851973195        0.020738445619196952
-8                        -8                       41.02564102564108        0.015459315081226825
-8                        8                        41.02564102564108        0.01517751943132549
-8                        -3.7380049160844404      40.90256410256416        0.019917721153919304
-8                        -1.901537786712888       39.591095896400894       0.02039543164057006
-8                        1.8004777585988716       39.63972468587092        0.021329698225449625
-8                        -0.061811597806911596    40.84401738971057        0.019693228564807912
-8                        3.7123812543917154       40.98967952667729        0.01899269234484616
-8                        5.776102277530526        42.30769230769238        0.016639519792168087
-8                        -5.776102277530525       42.30769230769238        0.016509224192998898
-8                        -8                       43.58974358974364        0.01429987870280868
-8                        -3.7380049160844377      43.46666666666679        0.018419978475690307
-8                        -1.8950863692344304      42.14912671713831        0.018223867138498807
-8                        8                        43.58974358974364        0.017073028486608636
-8                        5.776102277530519        44.87179487179493        0.018300262026046916
-8                        -5.776102277530519       44.87179487179493        0.015841895351691424
-8                        1.8051557205423947       42.20296932394816        0.021226366535448248
-8                        -0.05402429069179204     43.40742985944477        0.01784141353454854
-8                        3.6910011087671943       43.55849137630719        0.02006757988590465
-8                        -8                       46.1538461538462         0.01523948146613311
-8                        8                        46.1538461538462         0.01665408068207658
-8                        -3.7380049160844395      46.030769230769344       0.01742484665227155
-8                        -1.892821011268893       44.713063643202574       0.01839272017322208
-8                        1.8082720204042495       44.76626900854439        0.020185203318568386
-8                        -0.052158836996461844    45.97115385276016        0.018941641712290697
-8                        3.7136555732676797       46.11627723992249        0.01831849271163973
-8                        5.776102277530526        47.43589743589749        0.015064548425160862
-8                        -5.776102277530525       47.43589743589749        0.016339150942390707
-8                        -8                       48.71794871794877        0.015565529376197701
-8                        -3.738004916084439       48.5948717948719         0.015924176420795893
-8                        -1.8796467385217939      47.25323553243601        0.018344134934241467
-8                        8                        48.71794871794877        0.011574867628809304
-8                        5.776102277530514        50.00000000000004        0.012923949207559243
-8                        -5.776102277530513       50.000000000000064       0.015552263029824013
-8                        1.8073970888077842       47.329425234900604       0.018116437382016713
-8                        -0.052732904668664204    48.5350688391251         0.016936191348342823
-8                        3.745135709791313        48.67278774031427        0.015797726903664763
-8                        -8                       51.28205128205134        0.014376096974571775
-8                        8                        51.28205128205134        0.011664557329211421
-8                        -3.738004916084438       51.158974358974525       0.014177660901013474
-8                        -1.8796058291287763      49.81730633017889        0.015557467776141318
-8                        1.8188325682874993       49.89169049668779        0.015349954269134956
-8                        -0.049068507565419146    51.10604397053336        0.014814688478830183
-8                        3.7192109345474016       51.2440318130724         0.014678994094116873
-8                        5.776102277530525        52.56410256410264        0.013452656912799607
-8                        -5.776102277530525       52.56410256410264        0.013643829382590178
-8                        -8                       53.846153846153896       0.012570299254676398
-8                        -1.8822826937231445      52.387899162366594       0.014718848517340144
-8                        -3.7380049160844404      53.72307692307707        0.013442700055927882
-8                        8                        53.846153846153896       0.01132476415983151
-8                        5.776102277530519        55.128205128205195       0.013282989209112963
-8                        -5.776102277530519       55.128205128205195       0.012362431969805838
-8                        1.8163666973574344       52.45666126985513        0.013620852968233546
-8                        -0.04762510966065925     53.67222613577219        0.01290608450246109
-8                        3.719209493164947        53.80830630948126        0.013847872433202629
-8                        -8                       56.410256410256466       0.01215703602345513
-8                        8                        56.410256410256466       0.011899519717086082
-8                        -3.7380049160844417      56.28717948717963        0.013226971472613085
-8                        -1.8864013985029755      54.9630891066204         0.013163813160937246
-8                        1.8138408946511915       55.020280691438515       0.011474726056646992
-8                        -0.040378808697045354    56.258197748145754       0.012164284013365495
-8                        3.7185450841743712       56.37222818744425        0.012020754881683068
-8                        5.776102277530526        57.69230769230775        0.011308556242782838
-8                        -5.776102277530525       57.69230769230778        0.011510223400008783
-8                        -8                       58.97435897435903        0.010597057433991601
-8                        -1.8843285166570252      57.51542157901107        0.013095478735341927
-8                        -3.7380049160844417      58.85128205128218        0.010374694597131634
-8                        8                        58.97435897435903        0.010669684602238175
-8                        5.776102277530525        60.256410256410334       0.010560394038492979
-8                        -5.776102277530525       60.256410256410334       0.00982342588919066
-8                        1.8245352842721374       57.58665976833659        0.011615093152918672
-8                        -0.03840753766844829     58.826135885578125       0.011764986912798493
-8                        3.7180422825573203       58.93618978380886        0.010938310608659576
-8                        -8                       61.5384615384616         0.00920216337209845
-8                        8                        61.5384615384616         0.009785694387712991
-8                        -3.7380049160844404      61.41538461538476        0.010800733547125232
-8                        -1.8873040674358725      60.08268175134639        0.010930509893613114
-8                        1.8105366989972946       60.14772975529965        0.010728769146574849
-8                        -0.053505816490180276    61.36612471132928        0.008988589954436492
-8                        3.717773350464043        61.500369270247674       0.010591708894284062
-8                        5.776102277530519        62.82051282051292        0.009147277721791384
-8                        -5.776102277530519       62.82051282051292        0.01028418691408482
-8                        -8                       64.10256410256417        0.009497245481062911
-8                        -1.882404422309085       62.6365289117421         0.01096039201792625
-8                        -3.7380049160844364      63.979487179487315       0.010158201362340752
-8                        8                        64.10256410256417        0.006944660787886675
-8                        5.776102277530514        65.38461538461546        0.00841412031871811
-8                        -5.776102277530514       65.38461538461546        0.009358152813309683
-8                        1.8115140867146753       62.71351559729347        0.00828658510525463
-8                        -0.04657919364945373     63.9354389574244         0.0092604351791763
-8                        3.7151263087981583       64.06483214538041        0.009616050701263623
-8                        -8                       66.66666666666673        0.007981638827102587
-8                        8                        66.66666666666673        0.008153824215772763
-8                        -3.7380049160844364      66.5435897435899         0.008206266984465622
-8                        -1.8794389840534655      65.2095196074543         0.009905474384861923
-8                        1.8125170056119124       65.27845774696345        0.00826926330625846
-8                        -0.04212431538076622     66.48550378611553        0.008519100277865161
-8                        3.693058412433663        66.63337299282763        0.009850622031198674
-8                        5.7761022775305255       67.94871794871804        0.00873787883205721
-8                        -5.776102277530525       67.94871794871804        0.007138225807491791
-8                        -8                       69.2307692307693         0.007348422687582813
-8                        -1.8683100900738228      67.76112617175414        0.00817377673638881
-8                        -3.7380049160844373      69.10769230769247        0.006793785948292129
-8                        8                        69.2307692307693         0.008409698664715639
-8                        5.776102277530514        70.51282051282061        0.008394294763784739
-8                        -5.776102277530514       70.51282051282061        0.007076717373833957
-8                        1.8200252330299218       67.83681060341897        0.007476805707821447
-8                        -0.012894125852987774    69.04553646876262        0.008405758073339013
-8                        3.717367602065906        69.19104076292797        0.009133062817853728
-8                        1.8288500182007825       70.39477500219127        0.008956257621760921
-8                        -8                       71.79487179487188        0.007469898445149376
-8                        8                        71.79487179487188        0.00745559641966828
-8                        -3.7380049160844386      71.67179487179503        0.008383038700853409
-8                        -1.7928077351500546      70.20512820512836        0.008869938223052586
-8                        0.006353049097747032     71.58761165673351        0.008072748728460874
-8                        3.7216578793955275       71.75380643034516        0.007869261877635968
-8                        5.776102277530532        73.07692307692315        0.007595134832053082
-8                        8                        74.35897435897442        0.006770476001360042
-8                        -5.77610227753053        73.0769230769232         0.007932844583652727
-8                        -8                       74.35897435897442        0.008743723071182494
-8                        -1.7928077351500524      72.76923076923094        0.006781158825059759
-8                        -3.7380049160844404      74.2358974358976         0.007134591511028943
-8                        -5.776102277530519       75.64102564102575        0.008225525651127418
-8                        5.776102277530519        75.64102564102575        0.007501528413478968
-8                        1.8302260287282888       72.95769509917514        0.00786869823407956
-8                        0.009564709131710813     74.14784476430394        0.0067840722023267954
-8                        3.722429353596654        74.31762264156578        0.00703033959580841
-8                        1.8287686681302873       75.52191720022017        0.0077848689023572734
-8                        -8                       76.92307692307699        0.00790575478251541
-8                        8                        76.92307692307699        0.0065272765967286095
-8                        3.7225701101556616       76.88166364657245        0.007310778342327456
-8                        -3.7380049160844426      76.80000000000015        0.006612970340991453
-8                        -1.7928077351500602      75.33333333333347        0.006425392957198725
-8                        0.00809570689822614      76.71168121743865        0.006334424364046642
-8                        -5.776102277530523       78.20512820512829        0.006865636148080812
-7.999999999999998        -7.999999999999998       79.48717948717956        0.0056376795470860505
-8                        5.7761022775305255       78.2051282051283         0.006462248961339256
-7.999999999999998        7.999999999999998        79.48717948717956        0.007898386623964007
-8                        -1.7928077351500615      77.89743589743603        0.005742749243489022
-8                        -3.738004916084443       79.36410256410271        0.005634863609893533
-8                        1.818180451080428        78.08819700275501        0.006288641368528694
-8                        -5.776102277530525       80.76923076923086        0.0051864931475478155
-8                        3.7225960613175757       79.44575310453084        0.005774744105176314
-8                        0.007863211331184061     79.2757287818821         0.004483126929010318
-8                        1.8288388778463072       80.65006301441235        0.0045343103586855124
-8                        -8                       82.0512820512821         0.004445787418882582
-8                        5.776102277530525        80.76923076923086        0.007179474831848283
-8                        8                        82.0512820512821         0.00625776637578587
-8                        -3.738004916084444       81.92820512820526        0.005348736566107945
-8                        -1.7928077351500604      80.46153846153861        0.006348426750482622
-8                        0.009897343831895        81.83938690236184        0.006214292805717489
-8                        -1.7928077351500602      83.02564102564116        0.006619233414716946
-8                        -5.776102277530525       83.33333333333341        0.004222796137634362
-7.999999999999998        -7.999999999999998       84.61538461538467        0.003392141572230828
-8                        -3.7380049160844426      84.49230769230782        0.005275159739735891
-8                        3.7226008788257925       82.00985291977824        0.005782660228345748
-8                        1.8306170086704583       83.21379134198598        0.005197062954446471
-8                        -5.776102277530525       85.89743589743597        0.004671341130660347
-7.999999999999998        -7.999999999999998       87.17948717948723        0.004973342837667622