% Model:              Cav_Hex_Unif_flux_v5.1.2 - Wall Distn.mph
% Version:            COMSOL 5.5.0.359
% Date:               May 16 2022, 16:44
% Dimension:          3
% Nodes:              2840
% Expressions:        1
% Description:        Surface
% x                       y                        z                        Color
5.714285714285714         -8                       0                        0.36645023235616214
5.754801530403203         -8                       1.8820578931072252       0.3490301081483873
8                         -8                       0                        0.39633311895566375
3.428571428571428         -7.999999999999998       0                        0.3597286788656207
8                         -8                       2.5641025641025665       0.4029472197792053
3.960910170576174         -8                       2.5242786437277736       0.3183413440833535
-5.714285714285713        -8                       0                        0.28623086000392256
-8                        -8                       0                        0.2804626944502231
-6.399613512553145        -8                       1.709006963007598        0.3065617646230365
-8                        -8                       2.5641025641025665       0.354026392953589
-3.4285714285714284       -7.999999999999998       0                        0.37454568563756135
-2.2857142857142847       -8                       2.1395157600494485       0.3517583240138063
-1.142857142857142        -7.999999999999998       0                        0.3644505094625967
0                         -8                       2.1395157600494485       0.346917245413972
2.104398884098128         -8                       2.2255935830165945       0.3424315748479751
1.1428571428571426        -8.000000000000002       0                        0.36984914246124534
3.041207673239228         -8                       3.88851632986984         0.29759743028932234
7.999999999999998         -7.999999999999998       5.128205128205133        0.4681930409752299
5.448413851057014         -8                       4.107507802736343        0.39203978489336017
3.6408576312798626        -8                       5.745116325733802        0.3374205340974348
1.0666328400540983        -8                       3.84607601667859         0.29244320159831794
2.0102397612250478        -8                       5.2158163145966          0.24992334232462463
1.9515480287373919        -8                       6.926208432567616        0.2977260961193689
-4.482995757972045        -8                       1.9744690261730424       0.3537068103596695
-7.999999999999998        -7.999999999999998       5.128205128205133        0.4218175275758858
-5.800786086990058        -8                       4.006463218196776        0.38828440153760013
-3.2686633564298297       -8                       4.160269695150509        0.35916247896709447
-1.0269477883073552       -8                       4.034277380187001        0.35643525486411015
-1.9623631158265926       -8                       6.3043447651149          0.4179234179983005
-4.191857806960449        -8                       5.720834870997349        0.3268100034833645
-5.941895733753852        -8                       6.553042846969359        0.3960102156935826
-8                        -8                       7.692307692307701        0.36243850878577577
5.746647837406632         -8                       6.703549938356201        0.42967356556805186
8                         -8                       7.692307692307701        0.42822754264598784
0.35329094980003717       -8                       5.703356428415108        0.3386133735536405
5.786728177056364         -8                       8.98045414211257         0.41324269176418005
3.712297517589745         -8                       7.883722758340506        0.3666930669642529
0.08063597291763536       -8                       7.893415661345915        0.377867259287233
1.8957387492873694        -8                       9.105278866375667        0.363983293478783
-1.7990334866822177       -8                       8.98930315195119         0.39614657277585597
-3.882628231042071        -8                       7.79608719775009         0.4031158317456069
-5.776102277530526        -8                       8.974358974358987        0.4405923961908306
-7.999999999999998        -7.999999999999998       10.256410256410268       0.4120560572858845
7.999999999999998         -7.999999999999998       10.256410256410268       0.40571305314662814
0.08321872793017349       -8                       10.247747910984774       0.3684487198735922
-3.5522045550610564       -8                       10.25641025641022        0.41757641627033754
3.7540090134038953        -8                       10.312804120893881       0.38742367690570595
5.776102277530514         -8                       11.538461538461497       0.41563604249720454
8                         -8                       12.820512820512837       0.39524029212339906
1.920430445089273         -8                       11.511182428211564       0.3793758620665429
-1.721732308063384        -8                       11.505753302241995       0.3759379740397187
3.7215627568434164        -8                       12.742421963606777       0.40641458166043637
5.776102277530524         -8                       14.10256410256412        0.41927891093309966
-8                        -8                       12.820512820512837       0.35154968228462063
-5.776102277530514        -8                       11.538461538461497       0.44409045586049745
-3.5522045550610244       -8                       12.82051282051282        0.40203098270780663
-5.776102277530524        -8                       14.10256410256412        0.39317638001344046
-8.000000000000002        -8.000000000000002       15.384615384615401       0.33062099697951114
8.000000000000002         -8.000000000000002       15.384615384615401       0.3582482041893695
0.10906543442189731       -8                       12.747966585779945       0.39721251011376174
1.9364541467296488        -8                       13.992417313189275       0.40810808226264794
-1.7164563219627242       -8                       14.055129777032294       0.3885983986935761
-3.552204555061049        -8                       15.384615384615397       0.4084737090192036
-5.776102277530525        -8                       16.66666666666668        0.38191210289986705
-7.999999999999998        -7.999999999999998       17.948717948717967       0.292408520099909
3.830218715012013         -8                       15.31543874986767        0.3941658266597754
5.776102277530526         -8                       16.66666666666665        0.3625779505743107
7.999999999999998         -7.999999999999998       17.948717948717967       0.31715052904335495
0.11557740468984257       -8                       15.291572288592548       0.399331689396152
-1.7161987618227952       -8                       16.612671663328694       0.40752124462168543
1.956750886565821         -8                       16.551980510810793       0.37768560069586804
0.11902771243354238       -8                       17.84529448682055        0.3679898604018157
5.776102277530526         -8                       19.230769230769205       0.34250840159440976
8.000000000000002         -8.000000000000002       20.51282051282054        0.2497972093742327
3.82120332197573          -8                       17.85285757683457        0.3828358969258509
-3.5522045550610617       -8                       17.948717948717956       0.40836385951888854
-1.7137574578770955       -8                       19.158821245964617       0.3813846123033486
-5.776102277530526        -8                       19.230769230769205       0.3484950593467467
-8.000000000000002        -8.000000000000002       20.51282051282054        0.2680632982278466
5.776102277530514         -8                       21.79487179487179        0.27221118398031957
8                         -8                       23.0769230769231         0.24333271698794956
3.827588452737939         -8                       20.424864055639635       0.3473011280343982
1.9592042811756978        -8                       19.11195645635906        0.3585231813538304
0.11388093783221721       -8                       20.406358326216466       0.3737305336841587
-3.552204555061035        -8                       20.51282051282051        0.3638160568044146
-8                        -8                       23.0769230769231         0.22871899948339916
-5.776102277530514        -8                       21.79487179487179        0.31280050595697484
-1.7158245672928683       -8                       21.720907031230354       0.3560361940100299
-3.552204555061007        -8                       23.076923076923066       0.3252630729240242
1.9683460160034087        -8                       21.690517329062157       0.34965188436046857
-5.776102277530514        -8                       24.35897435897445        0.2806772042763868
-8                        -8                       25.641025641025678       0.22250628370868664
5.776102277530514         -8                       24.358974358974343       0.2552369235543284
8                         -8                       25.641025641025678       0.22548328811784554
3.8409965569192366        -8                       22.996648971229906       0.29581220640872274
3.8139511220927034        -8                       25.54979854957693        0.25954626729649677
1.9599103186030256        -8                       24.245891710985077       0.3143353860353651
0.12141596161162305       -8                       22.979018696188614       0.3469807253667751
-1.7158142645122005       -8                       24.299276501019442       0.31030672785777963
-5.776102277530527        -8                       26.923076923076938       0.2451822132827676
-7.9999999999999964       -7.9999999999999964      28.205128205128236       0.20943494435943463
-3.552204555061067        -8                       25.641025641025685       0.2830212648056941
0.1199839558149276        -8                       25.547111026387846       0.28534577987922105
5.776102277530525         -8                       26.923076923076962       0.23248866975835467
7.9999999999999964        -7.9999999999999964      28.205128205128236       0.18946297295837944
1.9554241446733496        -8                       26.798902917950866       0.2447847416845839
3.8271474989923147        -8                       28.119639533375          0.21790556935017935
5.776102277530525         -8                       29.487179487179517       0.19665449791682488
7.999999999999998         -7.999999999999998       30.7692307692308         0.1955590601604804
-1.7170846777242286       -8                       26.86446427355378        0.2778484666204191
-7.999999999999998        -7.999999999999998       30.7692307692308         0.175208716190268
-5.776102277530525        -8                       29.487179487179517       0.1929312055579057
-3.5522045550610386       -8                       28.20512820512824        0.21349219853449808
0.12251723506813761       -8                       28.111180961120823       0.25393457791831603
-1.7127913733278994       -8                       29.417414145291467       0.2362704456174607
1.9654201059302296        -8                       29.37418067478721        0.21401355239987183
3.842326917971946         -8                       30.6902552837649         0.1855830823004676
-3.5522045550610493       -8                       30.769230769230795       0.1960470715577757
-5.776102277530525        -8                       32.05128205128208        0.18265585019069341
-8                        -8                       33.33333333333337        0.17131423154869088
0.12415125504244351       -8                       30.665012728753503       0.21876996563195542
5.776102277530526         -8                       32.05128205128205        0.17816311187402037
8                         -8                       33.33333333333337        0.15839806274706955
-1.7147735591435378       -8                       31.989515432623254       0.2054803671082596
-3.5522045550610444       -8                       33.33333333333336        0.18877998829737488
-1.7206450309432295       -8                       34.553326244526296       0.1740498635543395
3.81413393100206          -8                       33.24205790336339        0.15871526058888288
1.9636733602205165        -8                       31.935109887738136       0.1743260234369555
0.11704197295649266       -8                       33.22043931956401        0.1823873038148364
-5.776102277530514        -8                       34.615384615384635       0.1775364433048594
-8                        -8                       35.89743589743594        0.15144552675955833
5.776102277530514         -8                       34.615384615384635       0.14474128542985248
8                         -8                       35.89743589743594        0.14299629616179396
3.8245336475434266        -8                       35.80994279947316        0.15856978568835403
5.776102277530525         -8                       37.179487179487225       0.14744955470025514
8                         -8                       38.4615384615385         0.13311144434253624
3.7380049160844386        -8                       38.33846153846161        0.15337367002253963
-8                        -8                       38.4615384615385         0.1167079061595074
-5.776102277530525        -8                       37.179487179487225       0.1484916848801461
-5.776102277530519        -8                       39.74358974358978        0.11105068623183016
5.776102277530521         -8                       39.74358974358978        0.13787576840872717
-3.5522045550610333       -8                       35.89743589743595        0.17060675064492278
0.10440329570126439       -8                       35.78182349600478        0.1642513961580743
-1.7365953237776353       -8                       37.0988603242147         0.1581496340084931
1.9332011136432354        -8                       37.056777890766206       0.15253135316228025
1.956694130358812         -8                       34.498974464209375       0.16238791559009266
8                         -8                       41.02564102564108        0.1359885773072492
0.07403290545858399       -8                       38.3203691500474         0.1516293399564739
-3.7130064962925378       -8                       38.42658851973195        0.1444231176769516
-8                        -8                       41.02564102564108        0.08846739362628174
3.7380049160844417        -8                       40.90256410256419        0.12647809076450608
-1.8004777585988698       -8                       39.63972468587092        0.14247977810276016
1.9015377867128898        -8                       39.591095896400894       0.14001389504694936
0.06181159780691248       -8                       40.84401738971057        0.13302889047507852
-5.776102277530526        -8                       42.30769230769238        0.10108074250075179
-3.7123812543917154       -8                       40.98967952667729        0.12042075190004137
1.895086369234431         -8                       42.14912671713835        0.11578660018303462
3.738004916084441         -8                       43.46666666666679        0.09888742048856876
-8                        -8                       43.58974358974364        0.09381592224741846
-5.776102277530519        -8                       44.87179487179493        0.11034369120926592
5.776102277530527         -8                       42.307692307692356       0.12131424356620284
8                         -8                       43.58974358974364        0.1058439284187465
5.776102277530519         -8                       44.87179487179493        0.1007869960928051
-1.8051557205423947       -8                       42.20296932394816        0.11322152838375805
0.05402429069179249       -8                       43.40742985944475        0.10536623102675735
-3.6910011087671943       -8                       43.55849137630719        0.11076370832801154
-8                        -8                       46.1538461538462         0.10624025219656003
8                         -8                       46.1538461538462         0.09145724431290063
3.738004916084439         -8                       46.030769230769344       0.08919191202870802
-1.8082720204042495       -8                       44.76626900854439        0.09477243832826615
1.892821011268893         -8                       44.713063643202574       0.09222063099967663
0.052158836996461844      -8                       45.97115385276016        0.09153420488911741
-5.776102277530526        -8                       47.43589743589749        0.10908031741555314
-3.7136555732676797       -8                       46.11627723992249        0.10297625220944666
1.879646738521794         -8                       47.25323553243599        0.07987639565761499
3.7380049160844395        -8                       48.5948717948719         0.08435248410607553
-8                        -8                       48.71794871794877        0.10409562391316168
-5.776102277530514        -8                       50.00000000000004        0.08963393149576075
5.776102277530526         -8                       47.43589743589749        0.09855831273920063
8                         -8                       48.71794871794877        0.08907728930142321
5.776102277530513         -8                       50.000000000000064       0.0862948764368658
-1.807397088807784        -8                       47.32942523490056        0.09255736409947159
0.052732904668664204      -8                       48.53506883912508        0.08617650467011508
-3.745135709791313        -8                       48.67278774031427        0.09101771887553979
-8                        -8                       51.28205128205134        0.08430291485463336
8                         -8                       51.28205128205134        0.08275342407366731
3.738004916084436         -8                       51.158974358974476       0.0704851127530795
-1.8188325682874993       -8                       49.89169049668776        0.08767161058225557
1.8796058291287747        -8                       49.817306330178866       0.07514741454168557
0.049068507565419146      -8                       51.10604397053336        0.0794533083560719
-5.776102277530525        -8                       52.56410256410264        0.07637166559134516
-3.7192109345474016       -8                       51.2440318130724         0.07522319018085613
1.8822826937231432        -8                       52.387899162366594       0.06098193543760361
3.738004916084439         -8                       53.72307692307707        0.07046205408589679
-8                        -8                       53.846153846153896       0.061584189185465855
-5.776102277530521        -8                       55.128205128205195       0.07648021062260761
5.776102277530526         -8                       52.56410256410264        0.08372203918923694
8                         -8                       53.846153846153896       0.08242060968605565
5.776102277530519         -8                       55.128205128205195       0.07614076713567029
-1.8163666973574344       -8                       52.45666126985513        0.07063126738239714
0.04762510966065925       -8                       53.67222613577223        0.06107809690868491
-3.7192094931649464       -8                       53.80830630948121        0.0696822065419334
-8                        -8                       56.410256410256466       0.07745800342806373
8                         -8                       56.410256410256466       0.0753314749541536
3.738004916084442         -8                       56.28717948717963        0.05653503206061685
-1.8138408946511917       -8                       55.020280691438494       0.058858714479668554
1.8864013985029755        -8                       54.9630891066204         0.05560207857547159
0.0403788086970458        -8                       56.258197748145754       0.05832093911266952
-5.776102277530525        -8                       57.69230769230778        0.06664609215245898
-3.7185450841743695       -8                       56.37222818744423        0.061610613634391874
5.776102277530525         -8                       57.69230769230778        0.06688509752052248
8                         -8                       58.97435897435903        0.07253815710439514
3.738004916084443         -8                       58.85128205128218        0.051023493049516914
1.8843285166570278        -8                       57.51542157901107        0.05533221686190906
-8                        -8                       58.97435897435903        0.07171056046777903
-5.776102277530525        -8                       60.256410256410334       0.06544002052218924
5.776102277530526         -8                       60.256410256410305       0.05825668234241812
-1.8245352842721374       -8                       57.58665976833659        0.05146736882361521
0.03840753766844962       -8                       58.826135885578125       0.05105616016666307
-3.7180422825573185       -8                       58.93618978380886        0.053763477131217326
-8                        -8                       61.5384615384616         0.07753519913672287
8                         -8                       61.5384615384616         0.058190718134481734
3.738004916084444         -8                       61.41538461538474        0.04823684605579026
-1.8105366989972946       -8                       60.14772975529965        0.05153266947480404
1.887304067435874         -8                       60.08268175134639        0.04893964485778268
0.0535058164901816        -8                       61.36612471132928        0.053824736188205484
-5.776102277530519        -8                       62.82051282051292        0.06772607369022778
-3.717773350464043        -8                       61.500369270247674       0.053948977842017444
5.776102277530521         -8                       62.82051282051286        0.05848576680949083
8                         -8                       64.10256410256417        0.06130301437000891
3.7380049160844373        -8                       63.979487179487286       0.04895740934405544
1.8824044223090861        -8                       62.63652891174208        0.046130491024344765
-8                        -8                       64.10256410256417        0.06528724815013164
-5.776102277530514        -8                       65.38461538461546        0.05860956467931694
5.776102277530514         -8                       65.38461538461546        0.0519654205188898
-1.8115140867146753       -8                       62.7135155972935         0.05344134608106014
8                         -8                       66.66666666666673        0.056133833502225616
0.04657919364945373       -8                       63.93543895742442        0.05748465560505777
-3.7151263087981583       -8                       64.06483214538041        0.04716031069572615
-8                        -8                       66.66666666666673        0.051092704500935705
3.7380049160844333        -8                       66.54358974358989        0.04618874650932622
-1.8125170056119124       -8                       65.27845774696345        0.03846840326934675
1.879438984053465         -8                       65.2095196074543         0.047349013303920245
0.042124315380764894      -8                       66.48550378611553        0.04154096969636099
-5.7761022775305255       -8                       67.94871794871804        0.04436236519707381
-3.693058412433663        -8                       66.63337299282763        0.036618725885225904
5.776102277530525         -8                       67.94871794871804        0.04550198789591605
8                         -8                       69.2307692307693         0.05857029263880007
3.7380049160844373        -8                       69.10769230769246        0.04062127254540241
1.8683100900738199        -8                       67.76112617175414        0.045162938328615065
-8                        -8                       69.2307692307693         0.03558264970968957
-5.776102277530514        -8                       70.51282051282061        0.039082297879674675
5.776102277530513         -8                       70.5128205128206         0.04862472260277456
8                         -8                       71.79487179487188        0.0588820925371605
-1.8200252330299218       -8                       67.83681060341897        0.028804716105605876
0.012894125852985994      -8                       69.04553646876262        0.035358739962268314
-3.717367602065906        -8                       69.19104076292797        0.03165840547503269
-1.828850018200784        -8                       70.39477500219124        0.03364585094214408
-8                        -8                       71.79487179487188        0.04338194491272181
3.73800491608444          -8                       71.67179487179503        0.041292755860337156
1.7928077351500527        -8                       70.20512820512839        0.03774775708391751
-0.006353049097747032     -8                       71.58761165673351        0.03926095920937726
-5.776102277530532        -8                       73.07692307692315        0.045394911906884154
-3.7216578793955275       -8                       71.75380643034516        0.03483780918050202
-8                        -8                       74.35897435897442        0.04381622550038555
1.792807735150056         -8                       72.76923076923094        0.03792165915272743
3.7380049160844404        -8                       74.2358974358976         0.03397666072177966
5.77610227753053          -8                       73.0769230769232         0.047439402190925996
8                         -8                       74.35897435897442        0.05017422788115239
-5.776102277530519        -8                       75.64102564102575        0.04482389582657643
5.776102277530521         -8                       75.6410256410257         0.03490342574654116
8                         -8                       76.92307692307699        0.04115488550092011
-1.8302260287282905       -8                       72.95769509917514        0.034049478617004574
-0.009564709131710813     -8                       74.14784476430394        0.03240499340355448
-3.7224293535966555       -8                       74.31762264156576        0.037687107782109965
-1.828768668130289        -8                       75.52191720022017        0.03031968362174819
-8                        -8                       76.92307692307699        0.04477091868721663
-3.722570110155664        -8                       76.8816636465724         0.03655404085684403
1.7928077351500615        -8                       75.3333333333335         0.027462223891351657
-0.008095706898227917     -8                       76.71168121743865        0.02871251961062675
3.7380049160844435        -8                       76.80000000000014        0.026368870918998696
-5.776102277530526        -8                       78.20512820512829        0.035502538009085725
-7.999999999999998        -7.999999999999998       79.48717948717956        0.030259277315609196
5.776102277530523         -8                       78.20512820512829        0.03679192751167263
7.999999999999998         -7.999999999999998       79.48717948717956        0.044498038642733606
1.7928077351500566        -8                       77.89743589743605        0.020416988865903086
3.7380049160844404        -8                       79.3641025641027         0.030393562947465463
-1.81818045108043         -8                       78.08819700275501        0.037971559016585776
-3.7225960613175775       -8                       79.44575310453084        0.02976347781342451
-1.828838877846307        -8                       80.65006301441228        0.033899155287799736
-0.007863211331185838     -8                       79.27572878188207        0.029361928426461226
5.776102277530523         -8                       80.76923076923084        0.03651389619976999
-5.776102277530525        -8                       80.76923076923086        0.026858694222938604
-8                        -8                       82.0512820512821         0.030847452606385817
8                         -8                       82.0512820512821         0.024043489061064915
1.7928077351500582        -8                       80.46153846153861        0.025352752976329967
-0.009897343831895        -8                       81.83938690236184        0.02616981120342375
3.738004916084444         -8                       81.92820512820526        0.03120807975066245
1.7928077351500615        -8                       83.02564102564116        0.024045023381352542
-3.7226008788257907       -8                       82.00985291977818        0.026825240753649716
-1.8306170086704583       -8                       83.21379134198597        0.026361395955766587
5.776102277530525         -8                       83.33333333333341        0.02491182862031043
7.999999999999998         -7.999999999999998       84.61538461538467        0.02397273126674757
3.7380049160844435        -8                       84.4923076923078         0.025667218200768505
-7.999999999999998        -7.999999999999998       84.61538461538467        0.031046969878155906
-5.776102277530526        -8                       83.3333333333334         0.03303298966909774
-7.999999999999998        -7.999999999999998       87.17948717948723        0.02477971188593286
-5.776102277530525        -8                       85.89743589743597        0.028601579103680802
-3.722601776633923        -8                       84.57395491663601        0.029086726874255547