% Model:              Cav_Hex_Unif_flux_v5.1.2 - Wall Distn.mph
% Version:            COMSOL 5.5.0.359
% Date:               May 16 2022, 16:44
% Dimension:          3
% Nodes:              2456
% Expressions:        1
% Description:        Surface
% x                       y                        z                        Color
-4                        -3.1091887578916704      0.9141057645898676       0.032421740440356
-3.999999999999999        -3.999999999999999       1.3157894736842068       0.030044849559066614
-4                        -4                       0                        0.024917658281365565
-4                        -2.6666666666666665      0                        0.03642928797003583
-4                        3.0758370637793435       0.8833550143143354       0.022033260847002297
-4                        2.666666666666668        0                        0.02314626115208464
-4                        4                        0                        0.022041031765720115
-3.999999999999999        3.999999999999999        1.3157894736842068       0.022849506631669455
-4                        7.91033905045424E-16     0                        0.03454909874630533
-4                        -0.5689913898402228      1.1116586170553335       0.03721810209367363
-4                        -1.3333333333333326      0                        0.03972734983884391
-4                        0.6666666666666679       1.1471949848797847       0.03210542812317279
-4                        1.9773752169223693       1.0299452043621926       0.030115982691665964
-3.999999999999999        1.3333333333333344       0                        0.034181114316490215
-4                        -2.960349857095676       2.0112046564970676       0.03390802335858723
-3.999999999999999        -3.999999999999999       2.6315789473684137       0.030820795645302417
-4                        -1.9189272656960084      1.2435346927680335       0.04088141694749902
-4                        -2.8581227149680184      3.289473684210531        0.03397386208385932
-3.999999999999999        -3.999999999999999       3.947368421052621        0.031308568414343124
-3.999999999999999        3.999999999999999        2.6315789473684137       0.02474503260559908
-4                        2.7487192587958154       2.0653144274501267       0.02719894581936035
-4                        1.3730283122923892       2.0838067995287646       0.031674891535319716
-4                        -1.837439504065812       2.6758917200519377       0.03636054794749368
-4                        0.12648028973971837      2.1669050643517322       0.02737383576306139
-4                        -0.9548346964183825      2.1123169603324725       0.03487440350074757
-4                        2.8599075272384544       3.355731830803621        0.0309260932673803
-3.999999999999999        3.999999999999999        3.947368421052621        0.03048248624075707
-4                        2.8581227149680113       4.605263157894724        0.0369840078870338
-3.999999999999999        3.999999999999999        5.263157894736827        0.029928245397034595
-4                        -1.7424936699304212      4.027479320740534        0.03813507223938473
-4                        -2.8581227149680117      4.605263157894745        0.03392087218609984
-3.999999999999999        -3.999999999999999       5.263157894736827        0.032886804650700145
-4                        0.8619532281962199       3.1579922234977635       0.03471495806443298
-4                        1.7812792745967423       3.966579199080833        0.032512143275701864
-4                        1.8573657331396822       2.9352509224546353       0.028349563889777628
-4                        -0.5750990887494896      3.36346599852021         0.03574065711683654
-4                        0.611007966395122        4.43051753599315         0.0362587216190016
-4                        1.71624542993602         5.263157894736848        0.03514092856203043
-4                        2.8581227149680126       5.92105263157896         0.02971030124704947
-4                        4                        6.578947368421037        0.02283721246408586
-4                        2.8581227149680126       7.236842105263152        0.027831872385613337
-3.999999999999999        3.999999999999999        7.894736842105244        0.02555008164226949
-3.999999999999999        -3.999999999999999       7.894736842105244        0.026087430788520483
-4                        -4                       6.578947368421037        0.03147488639234941
-4                        -2.8586275888115775      7.250002914604715        0.030401783901092175
-4                        -0.5717463669678458      4.880753105016545        0.039830265190098885
-4                        -1.7153511999615885      5.352932535046618        0.033770880783117484
-4                        -2.8581227149680135      5.921052631578939        0.0314459962354628
-4                        0.5790826768682945       5.762404755957784        0.03755541432034001
-4                        1.7162454299360317       6.578947368421084        0.034331832605672054
-4                        -1.7149989508427785      6.699172966367439        0.03289864865292953
-4                        -0.5716245429936047      6.184210526315825        0.03824649074672798
-4                        -0.5710584479391533      7.53404758275108         0.03243242023954739
-4                        0.5737820992761975       7.078821845291228        0.03145016716795536
-4                        -2.8581227149680117      8.552631578947343        0.034881803647377925
-4                        -4                       9.210526315789451        0.02402944310029151
-4                        1.7162454299360226       7.894736842105275        0.03465732902750528
-4                        4                        9.210526315789451        0.02259892817244832
-4                        2.8581227149680064       8.552631578947366        0.0305955293071616
-4                        2.858122714968013        9.86842105263156         0.02971246588023165
-4                        4                        10.52631578947366        0.02321501764835517
-4                        -1.7151479891718506      8.000000000000005        0.03709071319668799
-4                        -1.7151479891718517      9.315789473684221        0.042725202855764866
-4                        0.5728986696775165       8.394715921583607        0.03365639275203402
-4                        -0.5712599735804016      8.84736423694834         0.037569594429663435
-4                        1.7162454299360288       9.210526315789448        0.037173880889371354
-4                        -2.858122714968012       9.868421052631557        0.031227762666031774
-4                        -4                       10.52631578947366        0.02436073287376857
-4                        2.8581227149680193       11.184210526315754       0.026882748960717406
-3.999999999999999        3.999999999999999        11.842105263157865       0.02391876514657298
-4                        1.716245429936035        10.52631578947365        0.03488416472860963
-4                        0.5727514314110698       9.710522829035872        0.03605668490226723
-4                        -1.7151479891718528      10.631578947368435       0.035930409212574316
-4                        -0.5712894212336918      10.163157197386163       0.032187529864228265
-3.999999999999999        -3.999999999999999       11.842105263157865       0.028288090283837494
-4                        -2.8581227149680126      12.499999999999966       0.030270886635347022
-4                        -4                       13.15789473684207        0.025617313711392777
-4                        -2.8581227149680184      11.184210526315754       0.031238208916741617
-4                        -0.5712943291759078      11.478947252195937       0.030552549998358058
-4                        0.5727268916999932       11.026315208348091       0.03058641370414862
-4                        1.7162454299360288       11.842105263157855       0.029380688712437337
-4                        2.8581227149680126       12.499999999999966       0.026944391364338533
-4                        4                        13.15789473684207        0.01891707848117614
-4                        -1.715147989171854       11.947368421052639       0.035625645579141496
-4                        -0.5712951471662768      12.794736822734421       0.03106861061304034
-4                        -2.8581227149680117      13.815789473684179       0.029753591564387602
-3.999999999999999        -3.999999999999999       14.47368421052628        0.027376303053821688
-4                        -1.715147989171851       13.263157894736823       0.03450663333809614
-4                        0.5727228017481458       12.342105166303629       0.028562546919853365
-4                        1.7162454299360252       13.15789473684209        0.031095138846733456
-4                        2.8581227149680117       13.81578947368418        0.024046482622864584
-3.999999999999999        3.999999999999999        14.47368421052628        0.025047484229164613
-4                        -0.5712952834980038      14.110526312561012       0.03299876944940849
-4                        0.5727221200895061       13.657894720699703       0.029631499969057788
-4                        -2.8581227149680153      15.131578947368386       0.02575607539907634
-4                        -4                       15.789473684210485       0.021407564128303583
-4                        -1.7151479891718493      14.578947368421048       0.03092202673029838
-4                        2.8581227149680153       15.131578947368386       0.024600439240770086
-4                        4                        15.789473684210485       0.030653301486340424
-4                        1.7162454299360261       14.473684210526304       0.02626363583241965
-4                        0.5727220064797329       14.973684207835925       0.0301995118875987
-4                        1.7162454299360235       15.789473684210499       0.030851615941664554
-4                        -1.715147989171852       15.89473684210525        0.027139179059965674
-4                        -0.5712953062199579      15.426315788935607       0.031532963661838866
-4                        -2.8581227149680126      16.447368421052587       0.023132344422007022
-4                        -4                       17.10526315789469        0.018118309158281384
-4                        2.8581227149680126       16.447368421052598       0.026950198472383502
-4                        4                        17.10526315789469        0.02149970077970322
-4                        -2.8581227149680135      17.763157894736793       0.022554720450578335
-3.999999999999999        -3.999999999999999       18.4210526315789         0.017168988499937612
-4                        0.5727219875447709       16.28947368376211        0.033896756517840285
-4                        -1.715147989171852       17.210526315789444       0.02547214696457432
-4                        -0.5712953100069511      16.74210526306823        0.027749476443041193
-4                        1.7162454299360308       17.10526315789471        0.03500796079802846
-3.999999999999999        3.999999999999999        18.4210526315789         0.01553486683096097
-4                        2.8581227149680117       17.763157894736793       0.0192497137084765
-4                        -2.8581227149680117      19.078947368421005       0.020967985111011934
-3.999999999999999        -3.999999999999999       19.73684210526311        0.019198699755409082
-3.999999999999999        3.999999999999999        19.73684210526311        0.018401324589805746
-4                        2.8581227149680117       19.078947368421005       0.019716577504442553
-4                        -2.8581227149680117      20.394736842105228       0.021705331932425072
-4                        -4                       21.05263157894732        0.019235623954196746
-4                        -1.715147989171851       18.526315789473657       0.023751462685393996
-4                        0.5727219843889433       17.605263157820005       0.03134946814966913
-4                        -0.5712953106381171      18.05789473682715        0.02236042033736332
-4                        0.5727219838629702       18.921052631566475       0.025080962165148598
-4                        1.7162454299360252       18.421052631578917       0.027700472496014622
-4                        2.858122714968013        20.39473684210523        0.021400702122215714
-4                        4                        21.05263157894732        0.014246565890440085
-4                        -1.7151479891718506      19.84210526315788        0.024827407422491437
-4                        -0.5712953107433112      19.373684210523813       0.027940484691625717
-4                        1.716245429936022        19.73684210526312        0.02658377168223076
-4                        0.5727219837753098       20.236842105261054       0.03048169728500777
-4                        -1.7151479891718506      21.157894736842085       0.026135885292952576
-4                        -2.8581227149680153      21.710526315789437       0.017901800432393578
-4                        -4                       22.368421052631522       0.01721368783512851
-4                        2.8581227149680153       21.710526315789437       0.019688282467034135
-4                        -0.5712953107608423      20.689473684210107       0.03143732219309541
-4                        1.716245429936027        21.052631578947334       0.026726275623797882
-4                        -0.571295310763765       22.00526315789466        0.0279785694921927
-4                        4                        22.368421052631522       0.017842297848901154
-4                        0.5727219837607018       21.552631578947          0.025161536807989427
-4                        1.716245429936033        22.368421052631536       0.024592520868067364
-4                        -1.715147989171851       22.4736842105263         0.026749267126827347
-4                        -2.8581227149680117      23.026315789473625       0.020055084033925783
-4                        -4                       23.68421052631573        0.014618756310291114
-4                        -1.7151479891718524      23.789473684210506       0.025815795473063643
-4                        -0.5712953107642524      23.32105263157893        0.025371634885854196
-4                        0.5727219837582656       22.868421052631493       0.023933571290467515
-4                        4                        23.68421052631573        0.014278979482001608
-4                        2.8581227149680126       23.026315789473628       0.022200365318451636
-4                        2.858122714968013        24.342105263157844       0.019416072252033047
-4                        4                        24.999999999999943       0.017964475931211085
-4                        1.716245429936025        23.68421052631574        0.024992419668932994
-4                        -2.8581227149680117      24.34210526315784        0.017655255218064814
-4                        -4                       24.999999999999943       0.014635046098243029
-4                        -2.8581227149680153      25.657894736842056       0.01846992027638131
-4                        -4                       26.31578947368415        0.013925159152146408
-4                        -1.715147989171851       25.10526315789472        0.020927148871143265
-4                        -0.5712953107643342      24.636842105263156       0.022808493668539587
-4                        0.5727219837578597       24.184210526315763       0.02288318538500413
-4                        1.716245429936027        24.999999999999957       0.021695590776170545
-4                        0.5727219837577895       25.49999999999998        0.022347195475016967
-4                        1.716245429936026        26.31578947368415        0.019034096304832156
-4                        2.8581227149680153       25.657894736842056       0.018962684984319866
-4                        2.85812271496801         26.97368421052626        0.014196713092857636
-4                        4                        26.31578947368415        0.013548786408539399
-4                        -0.5712953107643468      25.95263157894734        0.02085674050908297
-4                        -1.7151479891718513      26.421052631578913       0.020902825339903845
-4                        -2.858122714968009       26.97368421052626        0.01873603086097275
-4                        -4                       27.631578947368357       0.01424343696104574
-4                        4                        27.631578947368357       0.00861217696025345
-4                        0.5727219837577806       26.81578947368418        0.018996463428406222
-4                        1.7162454299360252       27.631578947368386       0.015405028959249008
-4                        2.8581227149680153       28.289473684210463       0.012705933479789116
-4                        -0.5712953107643486      27.268421052631552       0.02434681677938075
-4                        -1.715147989171851       27.736842105263104       0.021109742470516377
-4                        -2.8581227149680153      28.289473684210463       0.0143442656984806
-4                        -4                       28.947368421052563       0.00826280572595514
-4                        -1.7151479891718535      29.05263157894732        0.017864368685785347
-4                        4                        28.947368421052563       0.011858796977642194
-4                        2.8581227149680153       29.60526315789467        0.015370678466307275
-4                        -0.5712953107643501      28.584210526315744       0.023536025935166394
-4                        0.5727219837577806       28.131578947368386       0.02344419554584255
-4                        1.716245429936035        28.947368421052577       0.016820726695704048
-4                        0.5727219837577788       29.447368421052587       0.0197105352739709
-4                        -0.5712953107643506      29.899999999999952       0.020891437911106994
-4                        -2.8581227149680153      29.60526315789467        0.01289400618907121
-4                        -4                       30.263157894736768       0.008387037363692734
-4                        -2.8581227149680153      30.92105263157887        0.012976839945541913
-4                        -4                       31.578947368420977       0.01304008161237101
-4                        -1.7151479891718546      30.368421052631533       0.021465507512577014
-4                        4                        30.263157894736768       0.014771010657745191
-4                        1.7162454299360235       30.26315789473677        0.013169465575452776
-4                        0.572721983757777        30.763157894736793       0.013716422899092445
-4                        2.8581227149680126       30.92105263157888        0.01566656903709124
-4                        4                        31.578947368420977       0.012288853659061292
-4                        -1.7151479891718528      31.684210526315738       0.017090582169445995
-4                        -2.8581227149680157      32.236842105263065       0.014436598488426803
-4                        -4                       32.89473684210518        0.013181487781651463
-4                        -0.5712953107643519      31.215789473684165       0.01738671701463085
-4                        1.7162454299360297       31.578947368420998       0.015698589534791578
-4                        -0.5712953107643504      32.53157894736838        0.01504381585424875
-4                        0.572721983757777        32.078947368421005       0.015642527436776164
-4                        4                        32.89473684210518        0.01119007882354271
-4                        2.8581227149680153       32.23684210526307        0.013519802161593727
-4                        1.7162454299360261       32.894736842105196       0.013356970527759077
-4                        -1.7151479891718517      32.99999999999994        0.012480048420921918
-4                        -2.858122714968009       33.55263157894728        0.01195539847689129
-3.999999999999999        -3.999999999999999       34.210526315789394       0.012110123814169482
-4                        0.5727219837577815       33.394736842105225       0.013629500743511895
-3.999999999999999        3.999999999999999        34.210526315789394       0.009882864938519843
-4                        2.858122714968011        33.55263157894729        0.011772640449153398
-4                        1.7162454299360288       34.210526315789416       0.013117928090674769
-4                        -2.8581227149680215      34.868421052631504       0.011671902773789716
-4                        -4                       35.526315789473585       0.011247333360357914
-4                        -2.85812271496801        36.184210526315695       0.008582001018740326
-4                        -4                       36.842105263157805       0.007521663574918889
-4                        -1.7151479891718506      34.31578947368414        0.011909162894205986
-4                        -0.5712953107643486      33.84736842105258        0.012296271657762384
-4                        -0.5712953107643501      35.163157894736784       0.012009420411442692
-4                        -1.7151479891718528      35.63157894736835        0.011691801700785437
-4                        0.5727219837577806       34.710526315789416       0.014707132048714116
-4                        4                        35.526315789473585       0.008439057552234853
-4                        2.8581227149680215       34.868421052631504       0.008558692386965562
-4                        1.7162454299360368       35.526315789473585       0.011990330809783796
-4                        4                        36.842105263157805       0.00945546427462478
-4                        2.85812271496801         36.18421052631569        0.006200852945279962
-4                        1.7162454299360181       36.84210526315781        0.008069382910977923
-4                        0.5727219837577753       36.02631578947361        0.010417978341342492
-4                        -0.5712953107643521      36.47894736842099        0.008787699646707076
-4                        -1.7151479891718535      36.94736842105255        0.00797977750945498
-4                        -2.8581227149680135      37.49999999999992        0.004667030168622626
-4                        -4                       38.15789473684202        0.00817979807946657
-4                        -2.85812271496801        38.81578947368412        0.007969372900917666
-4                        -4                       39.47368421052623        0.010601955649625761
-4                        4                        38.15789473684202        0.005659792408880911
-4                        4                        39.47368421052623        0.004900549945078748
-4                        2.8581227149680073       38.815789473684134       0.005975199907144734
-4                        2.8581227149680126       37.499999999999915       0.007037294254247939
-4                        1.7162454299360173       38.157894736842024       0.008399495448672278
-4                        -1.7151479891718509      38.26315789473677        0.006759524203198639
-4                        0.5727219837577717       37.34210526315783        0.007121341279747215
-4                        0.5727219837577762       38.657894736842046       0.009261155058241878
-4                        -0.5712953107643521      37.7947368421052         0.0064065590793992945
-4                        -0.5712953107643504      39.11052631578941        0.008662459529121149
-4                        1.7162454299360288       39.47368421052625        0.007986809484407444
-4                        2.8581227149680193       40.13157894736834        0.006805145401599294
-4                        1.7162454299360317       40.78947368421044        0.004884785202576708
-3.999999999999999        3.999999999999999        40.78947368421043        0.006175564646376898
-4                        -2.8581227149680193      40.13157894736835        0.007731061785151914
-3.999999999999999        -3.999999999999999       40.78947368421043        0.0066223004471433556
-4                        -1.7151479891718522      39.57894736842097        0.010864644926419522
-4                        -1.715147989171852       40.89473684210518        0.008680056531459087
-4                        -0.5712953107643495      40.42631578947362        0.008316695681182096
-4                        0.5727219837577788       39.97368421052625        0.007516892483531343
-4                        2.8581227149680126       41.447368421052545       0.0065264695660087815
-4                        -2.8581227149680117      41.44736842105254        0.0070682045066997904
-4                        -4                       42.10526315789464        0.007842302203187696
-4                        1.716245429936027        42.10526315789465        0.006754828028011295
-4                        0.5727219837577788       41.289473684210456       0.00534792406426372
-4                        -0.5712953107643495      41.742105263157825       0.00713746276793481
-4                        4                        42.10526315789464        0.0057401387884769145
-4                        -1.7151479891718524      42.2105263157894         0.006236583751143976
-4                        2.8581227149680153       42.76315789473675        0.00878009840828212
-4                        4                        43.42105263157885        0.007857300936056725
-4                        2.8581227149680126       44.07894736842095        0.008260952426685316
-4                        -2.8581227149680153      42.76315789473675        0.00710541878422033
-4                        -4                       43.42105263157885        0.005883178833704531
-4                        1.7162454299360297       43.421052631578874       0.006754669560647801
-4                        0.5727219837577797       42.605263157894655       0.006898644649129158
-4                        -0.5712953107643488      43.05789473684203        0.007667146802657174
-4                        4                        44.736842105263044       0.003412325525744266
-4                        -2.8581227149680117      44.07894736842094        0.008050843723090059
-4                        -4                       44.736842105263044       0.0066477805789818475
-4                        -1.715147989171851       43.526315789473614       0.007197519778523808
-4                        1.7162454299360288       44.736842105263065       0.006494970679418649
-4                        2.8581227149680126       45.394736842105154       0.00622092722323976
-4                        4                        46.05263157894726        0.006562351413351445
-4                        0.5727219837577806       43.921052631578874       0.004912898590323548
-4                        -0.5712953107643486      44.37368421052624        0.003776337257779055
-4                        -2.8581227149680117      45.39473684210515        0.005772629688579135
-4                        -4                       46.05263157894726        0.008351523891273747
-4                        -1.7151479891718517      44.842105263157805       0.0051638873088169016
-4                        -1.7151479891718522      46.157894736841996       0.003329876273221842
-4                        -0.5712953107643501      45.689473684210434       0.0033366630487217832
-4                        0.5727219837577788       45.236842105263065       0.002785003773180182
-4                        1.7162454299360297       46.052631578947256       0.0035532894006113556
-4                        2.8581227149680153       46.71052631578936        0.00684137109582663
-3.999999999999999        3.999999999999999        47.368421052631476       0.0068462969725508645
-4                        0.5727219837577762       46.55263157894728        0.004386091585881574
-4                        -0.5712953107643512      47.00526315789466        0.004614425470439086
-4                        -2.8581227149680153      46.71052631578936        0.005345444221701491
-3.999999999999999        -3.999999999999999       47.368421052631476       0.0059242390182672406
-4                        -2.85812271496801        48.02631578947359        0.0031364137220576305
-4                        -4                       48.68421052631568        0.0032718916349883773
-4                        -1.7151479891718524      47.473684210526216       0.0035925001649986295
-4                        1.7162454299360244       47.36842105263148        0.006206466339888756
-4                        2.8581227149680126       48.02631578947357        0.005049042221286516
-4                        4                        48.68421052631568        0.0051587367833264685
-4                        -0.5712953107643512      48.321052631578866       0.004466767095978887
-4                        1.7162454299360235       48.68421052631569        0.0037693047991794186
-4                        0.5727219837577753       47.86842105263149        0.005356213024905197
-4                        -2.8581227149680126      49.3421052631578         0.00354378184734524
-4                        -1.7151479891718504      48.78947368421043        0.003991218665395054
-4                        -4                       49.99999999999989        0.0014778664511594399