% Model:              Cav_Hex_Unif_flux_v5.1.2 - Wall Distn.mph
% Version:            COMSOL 5.5.0.359
% Date:               May 16 2022, 16:44
% Dimension:          3
% Nodes:              2840
% Expressions:        1
% Description:        Surface
% x                       y                        z                        Color
5.714285714285714         -8                       0                        0.38379730243123966
5.754801530403203         -8                       1.8820578931072252       0.36867598704218246
8                         -8                       0                        0.4170816822034578
3.428571428571428         -7.999999999999998       0                        0.37689345980311956
8                         -8                       2.5641025641025665       0.43054086574128797
3.960910170576174         -8                       2.5242786437277736       0.33531429479417824
-5.714285714285713        -8                       0                        0.3009106225817894
-8                        -8                       0                        0.3006381243809735
-6.399613512553145        -8                       1.709006963007598        0.32806279377594566
-8                        -8                       2.5641025641025665       0.3843552174602724
-3.4285714285714284       -7.999999999999998       0                        0.39061354183453373
-2.2857142857142847       -8                       2.1395157600494485       0.36728876002032745
-1.142857142857142        -7.999999999999998       0                        0.3788060592146139
0                         -8                       2.1395157600494485       0.36375334931388087
2.104398884098128         -8                       2.2255935830165945       0.3593018435262918
1.1428571428571426        -8.000000000000002       0                        0.38641675021056293
3.041207673239228         -8                       3.88851632986984         0.31266221344454814
7.999999999999998         -7.999999999999998       5.128205128205133        0.508382322970044
5.448413851057014         -8                       4.107507802736343        0.4189726272434021
3.6408576312798626        -8                       5.745116325733802        0.358885459046094
1.0666328400540983        -8                       3.84607601667859         0.3082024876058161
2.0102397612250478        -8                       5.2158163145966          0.2637252772108302
1.9515480287373919        -8                       6.926208432567616        0.3183256386717699
-4.482995757972045        -8                       1.9744690261730424       0.3742561813502687
-7.999999999999998        -7.999999999999998       5.128205128205133        0.45835850717243326
-5.800786086990058        -8                       4.006463218196776        0.41918247209013787
-3.2686633564298297       -8                       4.160269695150509        0.38153474348323796
-1.0269477883073552       -8                       4.034277380187001        0.37627419698581543
-1.9623631158265926       -8                       6.3043447651149          0.4470863542048366
-4.191857806960449        -8                       5.720834870997349        0.3497980484927512
-5.941895733753852        -8                       6.553042846969359        0.4290041293773706
-8                        -8                       7.692307692307701        0.4017040761262574
5.746647837406632         -8                       6.703549938356201        0.46599180025051923
8                         -8                       7.692307692307701        0.4687761301597588
0.35329094980003717       -8                       5.703356428415108        0.3581962498386158
5.786728177056364         -8                       8.98045414211257         0.4484937162450948
3.712297517589745         -8                       7.883722758340506        0.39418509258834705
0.08063597291763536       -8                       7.893415661345915        0.4042250903698347
1.8957387492873694        -8                       9.105278866375667        0.3910055824937693
-1.7990334866822177       -8                       8.98930315195119         0.42650176100212717
-3.882628231042071        -8                       7.79608719775009         0.4331589942001756
-5.776102277530526        -8                       8.974358974358987        0.47646509212636134
-7.999999999999998        -7.999999999999998       10.256410256410268       0.44534370055110734
7.999999999999998         -7.999999999999998       10.256410256410268       0.441181307915044
0.08321872793017349       -8                       10.247747910984774       0.3959741889573021
-3.5522045550610564       -8                       10.25641025641022        0.4498806804335014
3.7540090134038953        -8                       10.312804120893881       0.41895170354770844
5.776102277530514         -8                       11.538461538461497       0.4549963470786103
8                         -8                       12.820512820512837       0.43827173270293746
1.920430445089273         -8                       11.511182428211564       0.4089083886238895
-1.721732308063384        -8                       11.505753302241995       0.40561057528313316
3.7215627568434164        -8                       12.742421963606777       0.44195260914519435
5.776102277530524         -8                       14.10256410256412        0.4620250539944266
-8                        -8                       12.820512820512837       0.38501219980634316
-5.776102277530514        -8                       11.538461538461497       0.47923596386037626
-3.5522045550610244       -8                       12.82051282051282        0.4373599815537726
-5.776102277530524        -8                       14.10256410256412        0.43356169317944304
-8.000000000000002        -8.000000000000002       15.384615384615401       0.37364343871921607
8.000000000000002         -8.000000000000002       15.384615384615401       0.402757774390587
0.10906543442189731       -8                       12.747966585779945       0.4257714180373917
1.9364541467296488        -8                       13.992417313189275       0.4388913918498329
-1.7164563219627242       -8                       14.055129777032294       0.41876677620146907
-3.552204555061049        -8                       15.384615384615397       0.44648741733024716
-5.776102277530525        -8                       16.66666666666668        0.4253357663941648
-7.999999999999998        -7.999999999999998       17.948717948717967       0.33647600198054217
3.830218715012013         -8                       15.31543874986767        0.42654364334187833
5.776102277530526         -8                       16.66666666666665        0.40393259231796935
7.999999999999998         -7.999999999999998       17.948717948717967       0.3636932824478536
0.11557740468984257       -8                       15.291572288592548       0.42928811696209274
-1.7161987618227952       -8                       16.612671663328694       0.4409436752583146
1.956750886565821         -8                       16.551980510810793       0.40669132842680017
0.11902771243354238       -8                       17.84529448682055        0.3996711499749979
5.776102277530526         -8                       19.230769230769205       0.38333217033660905
8.000000000000002         -8.000000000000002       20.51282051282054        0.285724750794394
3.82120332197573          -8                       17.85285757683457        0.41538962172063204
-3.5522045550610617       -8                       17.948717948717956       0.44563678564661885
-1.7137574578770955       -8                       19.158821245964617       0.4169440648709572
-5.776102277530526        -8                       19.230769230769205       0.386020135869284
-8.000000000000002        -8.000000000000002       20.51282051282054        0.30608782628315906
5.776102277530514         -8                       21.79487179487179        0.3116976376256521
8                         -8                       23.0769230769231         0.28122442850166723
3.827588452737939         -8                       20.424864055639635       0.377908456823449
1.9592042811756978        -8                       19.11195645635906        0.3869077601846113
0.11388093783221721       -8                       20.406358326216466       0.40505884815761295
-3.552204555061035        -8                       20.51282051282051        0.3992694576729339
-8                        -8                       23.0769230769231         0.26452157953683925
-5.776102277530514        -8                       21.79487179487179        0.3507188623277153
-1.7158245672928683       -8                       21.720907031230354       0.3886488618202571
-3.552204555061007        -8                       23.076923076923066       0.360524775377898
1.9683460160034087        -8                       21.690517329062157       0.37999944800083957
-5.776102277530514        -8                       24.35897435897445        0.32155086825468765
-8                        -8                       25.641025641025678       0.25411675554272056
5.776102277530514         -8                       24.358974358974343       0.2940749243479712
8                         -8                       25.641025641025678       0.258895331729466
3.8409965569192366        -8                       22.996648971229906       0.33043241219964287
3.8139511220927034        -8                       25.54979854957693        0.29292690073591715
1.9599103186030256        -8                       24.245891710985077       0.3475794450506718
0.12141596161162305       -8                       22.979018696188614       0.3770237896928359
-1.7158142645122005       -8                       24.299276501019442       0.3427207834721873
-5.776102277530527        -8                       26.923076923076938       0.28496180613838223
-7.9999999999999964       -7.9999999999999964      28.205128205128236       0.2505990034154226
-3.552204555061067        -8                       25.641025641025685       0.32016031120900595
0.1199839558149276        -8                       25.547111026387846       0.31571296533937626
5.776102277530525         -8                       26.923076923076962       0.26771067646125163
7.9999999999999964        -7.9999999999999964      28.205128205128236       0.2274507648503108
1.9554241446733496        -8                       26.798902917950866       0.2757150806276065
3.8271474989923147        -8                       28.119639533375          0.2488377355800863
5.776102277530525         -8                       29.487179487179517       0.23022612034773693
7.999999999999998         -7.999999999999998       30.7692307692308         0.23372303727468982
-1.7170846777242286       -8                       26.86446427355378        0.31075597338690286
-7.999999999999998        -7.999999999999998       30.7692307692308         0.218527455160715
-5.776102277530525        -8                       29.487179487179517       0.23115572580852392
-3.5522045550610386       -8                       28.20512820512824        0.24461911727036764
0.12251723506813761       -8                       28.111180961120823       0.2872134837681522
-1.7127913733278994       -8                       29.417414145291467       0.26817856372736343
1.9654201059302296        -8                       29.37418067478721        0.24465415535500676
3.842326917971946         -8                       30.6902552837649         0.21664234138208002
-3.5522045550610493       -8                       30.769230769230795       0.22684245231442265
-5.776102277530525        -8                       32.05128205128208        0.21841824194963014
-8                        -8                       33.33333333333337        0.20967404591212715
0.12415125504244351       -8                       30.665012728753503       0.24930988354559966
5.776102277530526         -8                       32.05128205128205        0.21179371527789345
8                         -8                       33.33333333333337        0.19472803604418495
-1.7147735591435378       -8                       31.989515432623254       0.23483906185183434
-3.5522045550610444       -8                       33.33333333333336        0.22051053464489165
-1.7206450309432295       -8                       34.553326244526296       0.2018186779958142
3.81413393100206          -8                       33.24205790336339        0.18903498893374474
1.9636733602205165        -8                       31.935109887738136       0.20396204881775995
0.11704197295649266       -8                       33.22043931956401        0.2127124902568854
-5.776102277530514        -8                       34.615384615384635       0.2136820854557121
-8                        -8                       35.89743589743594        0.18741829715529737
5.776102277530514         -8                       34.615384615384635       0.17829336042024335
8                         -8                       35.89743589743594        0.17445488015075616
3.8245336475434266        -8                       35.80994279947316        0.19394462578823024
5.776102277530525         -8                       37.179487179487225       0.18259638498597205
8                         -8                       38.4615384615385         0.1667704980878534
3.7380049160844386        -8                       38.33846153846161        0.1840709646228601
-8                        -8                       38.4615384615385         0.1462753014992421
-5.776102277530525        -8                       37.179487179487225       0.18284785869356832
-5.776102277530519        -8                       39.74358974358978        0.13793868091959668
5.776102277530521         -8                       39.74358974358978        0.17082761123286205
-3.5522045550610333       -8                       35.89743589743595        0.20518215733297282
0.10440329570126439       -8                       35.78182349600478        0.19006587793116805
-1.7365953237776353       -8                       37.0988603242147         0.18679867969143207
1.9332011136432354        -8                       37.056777890766206       0.18021780608180019
1.956694130358812         -8                       34.498974464209375       0.19173639768134745
8                         -8                       41.02564102564108        0.17113544471115036
0.07403290545858399       -8                       38.3203691500474         0.18302421508502817
-3.7130064962925378       -8                       38.42658851973195        0.17207711091354402
-8                        -8                       41.02564102564108        0.1180531997267467
3.7380049160844417        -8                       40.90256410256419        0.15156087682342398
-1.8004777585988698       -8                       39.63972468587092        0.1716327089832178
1.9015377867128898        -8                       39.591095896400894       0.1685850481946891
0.06181159780691248       -8                       40.84401738971057        0.16056457636061353
-5.776102277530526        -8                       42.30769230769238        0.13219336401702722
-3.7123812543917154       -8                       40.98967952667729        0.1470425373846104
1.895086369234431         -8                       42.14912671713835        0.14067596727938722
3.738004916084441         -8                       43.46666666666679        0.12292315484279577
-8                        -8                       43.58974358974364        0.12256358213171487
-5.776102277530519        -8                       44.87179487179493        0.14132924274988493
5.776102277530527         -8                       42.307692307692356       0.15144486764861284
8                         -8                       43.58974358974364        0.1329880755554713
5.776102277530519         -8                       44.87179487179493        0.12965692447712715
-1.8051557205423947       -8                       42.20296932394816        0.1392609053478536
0.05402429069179249       -8                       43.40742985944475        0.12778651828668786
-3.6910011087671943       -8                       43.55849137630719        0.13821384187079933
-8                        -8                       46.1538461538462         0.1379407233416063
8                         -8                       46.1538461538462         0.11981820989091514
3.738004916084439         -8                       46.030769230769344       0.11589150175777019
-1.8082720204042495       -8                       44.76626900854439        0.12040547545952612
1.892821011268893         -8                       44.713063643202574       0.11502963246141128
0.052158836996461844      -8                       45.97115385276016        0.11400335117005377
-5.776102277530526        -8                       47.43589743589749        0.14666683099792047
-3.7136555732676797       -8                       46.11627723992249        0.13279778389096442
1.879646738521794         -8                       47.25323553243599        0.10440104580211818
3.7380049160844395        -8                       48.5948717948719         0.1116860390078432
-8                        -8                       48.71794871794877        0.13882594895373912
-5.776102277530514        -8                       50.00000000000004        0.11852273981389745
5.776102277530526         -8                       47.43589743589749        0.12903082721114384
8                         -8                       48.71794871794877        0.11791762569309654
5.776102277530513         -8                       50.000000000000064       0.11417987251198121
-1.807397088807784        -8                       47.32942523490056        0.11651700293305779
0.052732904668664204      -8                       48.53506883912508        0.10765394725859719
-3.745135709791313        -8                       48.67278774031427        0.1209345862677235
-8                        -8                       51.28205128205134        0.11202132385768722
8                         -8                       51.28205128205134        0.1081930425483703
3.738004916084436         -8                       51.158974358974476       0.09438743748644703
-1.8188325682874993       -8                       49.89169049668776        0.11054324865088633
1.8796058291287747        -8                       49.817306330178866       0.09617310657740773
0.049068507565419146      -8                       51.10604397053336        0.09662093184256836
-5.776102277530525        -8                       52.56410256410264        0.09977585711229138
-3.7192109345474016       -8                       51.2440318130724         0.09755932572330726
1.8822826937231432        -8                       52.387899162366594       0.0787326363633869
3.738004916084439         -8                       53.72307692307707        0.09236214564913194
-8                        -8                       53.846153846153896       0.08086290088892027
-5.776102277530521        -8                       55.128205128205195       0.10073210418745121
5.776102277530526         -8                       52.56410256410264        0.10846895867743805
8                         -8                       53.846153846153896       0.10578927882455193
5.776102277530519         -8                       55.128205128205195       0.0982516297654741
-1.8163666973574344       -8                       52.45666126985513        0.09142909920294344
0.04762510966065925       -8                       53.67222613577223        0.07997126916640161
-3.7192094931649464       -8                       53.80830630948121        0.09313034062106133
-8                        -8                       56.410256410256466       0.1022758713963986
8                         -8                       56.410256410256466       0.10318744596756764
3.738004916084442         -8                       56.28717948717963        0.07499704110958959
-1.8138408946511917       -8                       55.020280691438494       0.07828344330505033
1.8864013985029755        -8                       54.9630891066204         0.07427297954580382
0.0403788086970458        -8                       56.258197748145754       0.07655379719558404
-5.776102277530525        -8                       57.69230769230778        0.08752978381097072
-3.7185450841743695       -8                       56.37222818744423        0.07986148949697312
5.776102277530525         -8                       57.69230769230778        0.0891727287601539
8                         -8                       58.97435897435903        0.09589927772336382
3.738004916084443         -8                       58.85128205128218        0.06769781682354552
1.8843285166570278        -8                       57.51542157901107        0.07306568411247309
-8                        -8                       58.97435897435903        0.09409444054944849
-5.776102277530525        -8                       60.256410256410334       0.08524212113180696
5.776102277530526         -8                       60.256410256410305       0.07619334398125659
-1.8245352842721374       -8                       57.58665976833659        0.06612737517581184
0.03840753766844962       -8                       58.826135885578125       0.06781354360678114
-3.7180422825573185       -8                       58.93618978380886        0.07033040144226296
-8                        -8                       61.5384615384616         0.10090461091886689
8                         -8                       61.5384615384616         0.07687687263407662
3.738004916084444         -8                       61.41538461538474        0.06358520678440109
-1.8105366989972946       -8                       60.14772975529965        0.06986252245804904
1.887304067435874         -8                       60.08268175134639        0.06337178253950126
0.0535058164901816        -8                       61.36612471132928        0.07253765551023052
-5.776102277530519        -8                       62.82051282051292        0.08756235806353489
-3.717773350464043        -8                       61.500369270247674       0.07209975933489467
5.776102277530521         -8                       62.82051282051286        0.07629383525340176
8                         -8                       64.10256410256417        0.07935083994702687
3.7380049160844373        -8                       63.979487179487286       0.06517179528003897
1.8824044223090861        -8                       62.63652891174208        0.06245903874942076
-8                        -8                       64.10256410256417        0.08623151632854238
-5.776102277530514        -8                       65.38461538461546        0.07617369842381763
5.776102277530514         -8                       65.38461538461546        0.06806220400619252
-1.8115140867146753       -8                       62.7135155972935         0.07119188738688564
8                         -8                       66.66666666666673        0.07374107585377002
0.04657919364945373       -8                       63.93543895742442        0.07598299619468071
-3.7151263087981583       -8                       64.06483214538041        0.06059770921992195
-8                        -8                       66.66666666666673        0.06812361144942013
3.7380049160844333        -8                       66.54358974358989        0.0610463738789764
-1.8125170056119124       -8                       65.27845774696345        0.05053363542298301
1.879438984053465         -8                       65.2095196074543         0.06226533322613101
0.042124315380764894      -8                       66.48550378611553        0.054729759088506615
-5.7761022775305255       -8                       67.94871794871804        0.05955976782691577
-3.693058412433663        -8                       66.63337299282763        0.04917606690941034
5.776102277530525         -8                       67.94871794871804        0.060935203479139964
8                         -8                       69.2307692307693         0.07764206211845363
3.7380049160844373        -8                       69.10769230769246        0.05758055667828053
1.8683100900738199        -8                       67.76112617175414        0.060306774752496926
-8                        -8                       69.2307692307693         0.04623990059375636
-5.776102277530514        -8                       70.51282051282061        0.050351553527896414
5.776102277530513         -8                       70.5128205128206         0.06607827423860224
8                         -8                       71.79487179487188        0.07957423113776523
-1.8200252330299218       -8                       67.83681060341897        0.03894910595028287
0.012894125852985994      -8                       69.04553646876262        0.04725213010184361
-3.717367602065906        -8                       69.19104076292797        0.042479788828622134
-1.828850018200784        -8                       70.39477500219124        0.044743363064245645
-8                        -8                       71.79487179487188        0.055021407305835664
3.73800491608444          -8                       71.67179487179503        0.0560246933001378
1.7928077351500527        -8                       70.20512820512839        0.053563784693447615
-0.006353049097747032     -8                       71.58761165673351        0.05331424757820988
-5.776102277530532        -8                       73.07692307692315        0.058241412880105016
-3.7216578793955275       -8                       71.75380643034516        0.045387498327431185
-8                        -8                       74.35897435897442        0.055755971428260866
1.792807735150056         -8                       72.76923076923094        0.05241615552729518
3.7380049160844404        -8                       74.2358974358976         0.045258999715816005
5.77610227753053          -8                       73.0769230769232         0.061332829822143047
8                         -8                       74.35897435897442        0.06397947301604186
-5.776102277530519        -8                       75.64102564102575        0.057864297977261205
5.776102277530521         -8                       75.6410256410257         0.046437085509860844
8                         -8                       76.92307692307699        0.05320974136505644
-1.8302260287282905       -8                       72.95769509917514        0.04529071411386874
-0.009564709131710813     -8                       74.14784476430394        0.04314725176807632
-3.7224293535966555       -8                       74.31762264156576        0.04861319247170024
-1.828768668130289        -8                       75.52191720022017        0.04024866309743906
-8                        -8                       76.92307692307699        0.059310974465471566
-3.722570110155664        -8                       76.8816636465724         0.04838385974448251
1.7928077351500615        -8                       75.3333333333335         0.038014057845931266
-0.008095706898227917     -8                       76.71168121743865        0.03830076522078796
3.7380049160844435        -8                       76.80000000000014        0.03773076282081881
-5.776102277530526        -8                       78.20512820512829        0.04787370404722291
-7.999999999999998        -7.999999999999998       79.48717948717956        0.04186521305968079
5.776102277530523         -8                       78.20512820512829        0.050532293742643515
7.999999999999998         -7.999999999999998       79.48717948717956        0.05861009366219482
1.7928077351500566        -8                       77.89743589743605        0.028407148875068983
3.7380049160844404        -8                       79.3641025641027         0.041226686656145685
-1.81818045108043         -8                       78.08819700275501        0.05146804262470724
-3.7225960613175775       -8                       79.44575310453084        0.04170818719525552
-1.828838877846307        -8                       80.65006301441228        0.04610199387302937
-0.007863211331185838     -8                       79.27572878188207        0.03802640839831926
5.776102277530523         -8                       80.76923076923084        0.04953629136951574
-5.776102277530525        -8                       80.76923076923086        0.0365659933834343
-8                        -8                       82.0512820512821         0.04172575756948974
8                         -8                       82.0512820512821         0.03328592757594854
1.7928077351500582        -8                       80.46153846153861        0.033925740032206504
-0.009897343831895        -8                       81.83938690236184        0.03486592095798173
3.738004916084444         -8                       81.92820512820526        0.04190674722282773
1.7928077351500615        -8                       83.02564102564116        0.032987077323602725
-3.7226008788257907       -8                       82.00985291977818        0.037657669608265554
-1.8306170086704583       -8                       83.21379134198597        0.035703704235030935
5.776102277530525         -8                       83.33333333333341        0.033594943112965354
7.999999999999998         -7.999999999999998       84.61538461538467        0.03147250583037828
3.7380049160844435        -8                       84.4923076923078         0.03417165364025012
-7.999999999999998        -7.999999999999998       84.61538461538467        0.0414510886747248
-5.776102277530526        -8                       83.3333333333334         0.04468055361739823
-7.999999999999998        -7.999999999999998       87.17948717948723        0.034258043045558066
-5.776102277530525        -8                       85.89743589743597        0.03846030803494809
-3.722601776633923        -8                       84.57395491663601        0.03958184047816345