% Model:              Cav_Hex_Unif_flux_v5.1.2 - Wall Distn.mph
% Version:            COMSOL 5.5.0.359
% Date:               May 16 2022, 16:43
% Dimension:          3
% Nodes:              2312
% Expressions:        1
% Description:        Surface
% x                       y                        z                        Color
-2                        -1.5467906581302693      0.48436023573739106      0.0015193989947832787
-2                        -2                       0.6993006993006993       0.0028228140627789104
-2                        -2                       0                        0.0017135871320867848
-1.9999999999999996       -1.3333333333333333      0                        0.001535289107438163
-2                        0.9854950363904202       0.5398456058460233       0.0014724826260756867
-1.9999999999999996       0.6666666666666664       0                        0.0010012542230174125
-2                        1.3333333333333328       0                        0.0015323908383959273
-2                        1.5331042872139844       0.46695214314432804      0.00179594912151186
-2                        2                        0                        0.0016177286835392295
-2                        2                        0.6993006993006993       0.0018161388104836022
-2                        1.3650501983379588       1.0765628694962448       0.0018928675960161645
-2                        -0.9387819134775094      0.655560393584631        0.0018110703550739105
-2                        -0.666666666666667       0                        0.002372900347150857
-1.9999999999999996       6.938893903907228E-18    0                        0.001751530537011733
-2                        0.3333333333333335       0.5972399859632106       0.0015723170576809945
-2                        -0.2746188433937594      0.6287052323405429       0.0023166165681536683
-2                        -1.4618381261501168      1.0669401072700702       0.0021167616876105787
-2                        -2                       1.3986013986013985       0.0024577847728371152
-2                        0.6814823994572445       1.0983186364723951       0.0012552240068517192
-2                        0.931162528193509        1.5500723640754555       0.0012217892780904324
-2                        2                        1.3986013986013985       0.0016039011850523689
-2                        1.4270887945533661       1.777807580009244        0.001813908035192108
-2                        0.07957332045228059      1.1377343548604368       0.0019530336141380937
-2                        -0.4415884032033146      1.0634696305705904       0.0020019207943727016
-2                        -0.8925878367072785      1.4155661681446052       0.0020230956591429736
-2                        -1.3928683485856417      1.7482517482517392       0.001749674529661188
-2                        -2                       2.0979020979020975       0.0028071725353004044
-2                        -1.3928683485856423      2.447552447552442        0.0022605373596503056
-2                        -0.8322414176117614      2.127247752162631        0.001982724770490544
-2                        0.4375143654547809       1.6628349329323222       0.0012369159344268498
-2                        0.8734516922030853       2.0961543024278666       0.0014709191404459233
-2                        2                        2.0979020979020975       0.0019374148261284555
-2                        2                        2.797202797202796        0.0023444233141132467
-2                        1.3928683485856423       2.447552447552442        0.0023339637085727336
-2                        -0.2432586202459959      1.7704364526325622       0.0021467941296359427
-2                        0.31765840403057277      2.313218062714456        0.0018951228531610966
-2                        -2                       2.797202797202796        0.0022565578157007003
-2                        -0.2674700537808149      2.5620368233435995       0.002729433948431883
-2                        -1.3928683485856448      3.1468531468531404       0.002610210737982763
-2                        -2                       3.4965034965034967       0.0024479850962748234
-2                        -0.8043952977651958      2.8196428730508485       0.0025308727147147496
-2                        0.8349811804106952       2.7580080486931893       0.0017522191573452709
-2                        1.392868348585642        3.1468531468531404       0.002109837704226992
-2                        2                        3.4965034965034967       0.0020571248093952574
-2                        0.7857366971712838       3.496503496503489        0.0018901536857309949
-2                        0.27073186014168504      3.0298378162571975       0.002256088747135851
-2                        -0.27122003005021955     3.276467906589031        0.0020763743488359443
-2                        -0.7943106840168576      3.508357084488978        0.0022504672678527525
-2                        -1.3928683485856421      3.8461538461538325       0.002524941253503992
-2                        0.2396884944306046       3.761717135288639        0.002349859515831888
-1.9999999999999996       -1.9999999999999996      4.195804195804195        0.0026417485790436596
-1.9999999999999996       1.9999999999999996       4.195804195804195        0.0015169105966650095
-2                        1.3928683485856421       3.8461538461538325       0.0019361744578214142
-2                        0.7857366971712788       4.195804195804182        0.002042976799188164
-2                        1.3928683485856386       4.545454545454541        0.0015495249487456385
-1.9999999999999996       1.9999999999999996       4.895104895104893        0.0015947887330470187
-2                        -0.7857366971712819      4.195804195804182        0.0022863003968241207
-2                        -0.27310714516346263     3.9785851222218556       0.002701916009809444
-2                        -1.3928683485856386      4.545454545454531        0.002144038867165156
-1.9999999999999996       -1.9999999999999996      4.895104895104893        0.0020746184406060237
-2                        0.23876993251597203      4.461451690380269        0.002588084672390355
-2                        -0.27362248289541746     4.678460517942923        0.002539778275710227
-2                        -0.7857366971712776      4.895104895104884        0.0020779453986478655
-2                        -1.3928683485856421      5.24475524475524         0.0018726617169756614
-2                        -2                       5.594405594405594        0.002271098729073606
-2                        0.23861683886353413      5.160824698979444        0.002035786974808541
-2                        1.3928683485856421       5.24475524475524         0.0016973039505742693
-2                        0.785736697171282        4.895104895104884        0.0018203232577696752
-2                        2                        5.594405594405594        0.0023731778193644693
-2                        -1.3928683485856423      5.944055944055942        0.002052215716852109
-2                        -2                       6.2937062937062915       0.002345035773494816
-2                        -0.2745411292459874      5.378992505166885        0.002976817629855303
-2                        -0.7857366971712824      5.594405594405584        0.0024158448339816545
-2                        0.7857366971712834       5.5944055944055835       0.0012571660194030819
-2                        2                        6.2937062937062915       0.001638799636079687
-2                        1.392868348585642        5.944055944055942        0.002127963901265902
-2                        -0.2785736697171282      6.0839160839160575       0.0022602173595912766
-2                        0.23859132325479537      5.8601374498298835       0.002003489852100211
-2                        0.7857366971712838       6.2937062937062915       0.0023878100066573476
-2                        2                        6.9930069930069925       7.774850854774005E-4
-2                        1.39286834858564         6.6433566433566345       0.0017561153502463898
-2                        -0.7857366971712844      6.293706293706281        0.0015994234389865808
-2                        -1.3928683485856403      6.6433566433566345       0.002014731006269386
-2                        -2                       6.9930069930069925       0.0017330353245278228
-2                        0.23858707065333595      6.559440157722218        0.0016566510293484552
-2                        -0.2785736697171285      6.7832167832167665       0.001204231817731074
-2                        -1.39286834858564        7.342657342657343        0.0017299790603537424
-2                        -0.7857366971712776      6.993006993006973        0.0019363177874257616
-2                        -2                       7.692307692307692        0.0014550740682328807
-2                        -1.392868348585643       8.041958041958031        0.0015208587002423547
-1.9999999999999991       -1.9999999999999991      8.391608391608388        0.0015428230463333484
-2                        1.39286834858564         7.342657342657343        0.0011673960848921827
-2                        2                        7.692307692307692        0.0011304743598037693
-2                        0.785736697171277        6.993006993006973        0.002106996240723396
-2                        0.7857366971712848       7.6923076923076925       0.0016209386961390298
-2                        0.23858636188642857      7.258741191788188        0.001084455466025047
-2                        -0.27857366971712816     7.482517482517465        0.001689236412545051
-2                        -0.7857366971712848      7.6923076923076925       0.0020958922293975242
-2                        1.392868348585643        8.041958041958031        0.0013232844265186824
-1.9999999999999991       1.9999999999999991       8.391608391608388        0.0022882947052854452
-2                        0.238586243758609        7.958041946883093        0.0016345086860318683
-2                        0.7857366971712798       8.391608391608374        0.0018202046141125854
-2                        1.3928683485856377       8.741258741258735        0.0021090139834238964
-2                        -0.7857366971712799      8.391608391608374        0.0020002008127554135
-2                        -0.2785736697171277      8.181818181818157        0.0023696044216360394
-2                        -1.3928683485856377      8.741258741258735        0.001546694101238053
-2.0000000000000004       2.0000000000000004       9.09090909090909         0.001753064752544443
-2.0000000000000004       -2.0000000000000004      9.09090909090909         0.0012948608845648878
-2                        -0.7857366971712776      9.090909090909083        0.0017900757130759157
-2                        -1.3928683485856403      9.440559440559444        0.0010703914503967082
-2.0000000000000004       -2.0000000000000004      9.79020979020979         3.2120209832063563E-4
-2                        1.39286834858564         9.440559440559444        0.0013281517777450937
-2.0000000000000004       2.0000000000000004       9.79020979020979         0.0012279463734613672
-2                        -0.27857366971712955     8.881118881118866        0.00213478432111988
-2                        0.23858622407063823      8.65734265548282         0.002086775282016498
-2                        0.7857366971712771       9.090909090909083        0.002008377359157274
-2                        0.23858622078931105      9.356643356333372        0.0022898997244302968
-2                        -0.2785736697171268      9.580419580419564        0.002105646973587005
-2                        -1.3928683485856421      10.139860139860135       0.0012347123592618883
-1.9999999999999996       -1.9999999999999996      10.48951048951049        0.0012375835776278165
-2                        -0.7857366971712826      9.790209790209781        0.0019928035697988214
-2                        0.7857366971712825       9.790209790209781        0.0021333544172495553
-1.9999999999999996       1.9999999999999996       10.48951048951049        0.0017968302963161688
-2                        1.3928683485856421       10.139860139860135       0.002014289748456926
-2                        -0.2785736697171276      10.279720279720255       0.0019574869530783307
-2                        0.23858622024242493      10.055944055892374       0.0017705455010576078
-2                        1.3928683485856421       10.839160839160833       0.0017283338163579468
-2                        2                        11.188811188811187       0.0010795661302271918
-2                        0.7857366971712839       10.489510489510485       0.0017951223861948356
-2                        -1.3928683485856417      10.839160839160833       0.0018956949595718706
-2                        -2                       11.188811188811187       0.0014828818331872843
-2                        -0.7857366971712835      10.48951048951048        0.001886319779336152
-2                        -0.2785736697171285      10.979020979020959       0.0015052174692395668
-2                        -0.7857366971712815      11.188811188811181       0.0020110592791857816
-2                        -1.3928683485856412      11.538461538461533       0.001973421736280449
-2                        -2                       11.888111888111883       6.612500727174318E-4
-2                        2                        11.888111888111883       8.643117164237466E-4
-2                        1.3928683485856421       11.538461538461533       0.0011634765574615857
-2                        0.7857366971712834       11.188811188811176       0.0015530216484916936
-2                        0.2385862201512765       10.755244755236127       0.0015512804398869478
-2                        0.23858622013608421      11.454545454544009       0.0016097832506836319
-2                        -0.27857366971712816     11.678321678321668       0.0017013919719963348
-2                        -0.7857366971712808      11.888111888111885       0.0020729207869609034
-2                        -1.3928683485856395      12.237762237762235       0.001670017904031099
-2                        -2                       12.587412587412583       0.0010612879977449868
-2                        2                        12.587412587412583       9.991867317721479E-4
-2                        1.3928683485856401       12.237762237762235       0.001402577671009898
-2                        0.7857366971712798       11.88811188811188        0.00156658136571666
-2                        0.23858622013355246      12.153846153845894       0.001972214118380819
-2                        -0.2785736697171277      12.37762237762236        0.0019467937136147175
-2                        -1.3928683485856395      12.937062937062926       0.0015864513449801866
-2                        0.7857366971712834       12.587412587412578       0.0019492307063155424
-2                        1.39286834858564         12.937062937062926       0.001434088668575374
-2                        -2                       13.286713286713281       0.0011958149572789784
-2                        2                        13.286713286713281       0.0011753038502915264
-2                        1.3928683485856423       13.636363636363631       0.001189191438322477
-2                        2                        13.986013986013985       0.0017423297228211197
-2                        0.23858622013313058      12.853146853146797       0.0017097311443578546
-2                        0.7857366971712811       13.286713286713276       0.001347178181715659
-2                        -0.7857366971712811      12.587412587412572       0.0017786742618964152
-2                        -0.2785736697171277      13.076923076923064       0.0014123292494622054
-2                        -0.7857366971712808      13.286713286713276       0.001502522578172739
-2                        -1.3928683485856417      13.636363636363631       0.001833215526512522
-2                        -2                       13.986013986013985       0.0016694344385899875
-2                        0.23858622013306174      13.552447552447527       9.544044669126539E-4
-2                        0.7857366971712842       13.986013986013972       8.959877288730662E-4
-2                        1.3928683485856435       14.335664335664323       0.0015261269162599176
-2                        2                        14.68531468531468        0.001309366487032331
-2                        1.3928683485856403       15.034965034965026       8.357645725678337E-4
-2                        2                        15.38461538461538        2.9425853523805823E-4
-2                        -0.7857366971712842      13.986013986013967       0.0016289749447912004
-2                        -0.2785736697171276      13.77622377622375        0.0010797174900250492
-2                        -1.392868348585643       14.335664335664323       0.0013995439601442504
-2                        -2                       14.68531468531468        0.0014710047337720942
-2                        -1.3928683485856386      15.034965034965019       0.001347051299905997
-2                        -2                       15.38461538461538        0.0017472974101023205
-2                        0.23858622013304842      14.251748251748232       7.232287418118903E-4
-2                        -0.2785736697171294      14.475524475524448       7.75819694653819E-4
-2                        -0.7857366971712826      14.68531468531466        0.00112792347940353
-2                        0.785736697171282        14.68531468531466        0.0012240083214487864
-2                        0.785736697171278        15.384615384615374       0.0012380624986829925
-2                        -0.7857366971712758      15.384615384615374       9.546869846158637E-4
-2                        -1.3928683485856386      15.73426573426573        0.0010829831953703825
-2                        -2                       16.08391608391608        0.00102772355343184
-2                        2                        16.08391608391608        8.88543402601419E-4
-2                        1.3928683485856386       15.73426573426573        6.057241220174778E-4
-2                        1.3928683485856403       16.433566433566433       7.551690143974662E-4
-2                        0.7857366971712793       16.083916083916076       0.0010514709927448558
-2                        0.23858622013304487      14.951048951048923       9.539065252140593E-4
-2                        0.23858622013304487      15.650349650349636       0.0010580450006357595
-2                        -0.27857366971712955     15.174825174825152       6.531634076910252E-4
-2                        -0.2785736697171267      15.87412587412586        6.95697882091277E-4
-2                        -0.7857366971712809      16.08391608391607        8.595662303996321E-4
-2                        -1.3928683485856395      16.433566433566426       8.722605434218828E-4
-2                        -2                       16.783216783216776       7.622506592918893E-4
-2                        2                        16.783216783216776       0.001193592437575578
-2                        -0.7857366971712809      16.783216783216776       6.882986965826078E-4
-2                        -1.3928683485856417      17.13286713286713        5.798908869953818E-4
-2                        -2                       17.482517482517476       5.110566527871436E-4
-2                        2                        17.482517482517476       7.967892264948619E-4
-2                        1.3928683485856421       17.13286713286713        6.677467897330731E-4
-2                        -0.2785736697171268      16.57342657342656        4.77836131110252E-4
-2                        0.23858622013304667      16.349650349650336       6.385622142611193E-4
-2                        0.7857366971712829       16.783216783216776       5.77124889236782E-4
-2                        0.2385862201330471       17.048951048951032       6.607552769775732E-4
-2                        -0.2785736697171277      17.272727272727256       5.371027038722898E-4
-2                        -1.392868348585643       17.832167832167823       5.340022988492731E-4
-2                        -2                       18.181818181818173       3.323399291515195E-4
-2                        -0.7857366971712842      17.48251748251747        6.090052821953108E-4
-2                        0.7857366971712825       17.48251748251747        7.947186987313472E-4
-2                        2                        18.181818181818173       5.799640007503524E-4
-2                        1.392868348585643        17.832167832167826       6.247163118174048E-4
-2                        1.39286834858564         18.531468531468526       6.584029843311985E-4
-2                        -1.39286834858564        18.53146853146852        5.593964231313673E-4
-2                        2                        18.881118881118876       7.114153965742826E-4
-2                        -2                       18.881118881118876       4.3680679839271254E-4
-2                        0.2385862201330462       17.748251748251732       5.659900263480171E-4
-2                        0.7857366971712834       18.181818181818166       6.016750791669776E-4
-2                        -0.27857366971712905     17.972027972027956       1.442853448374636E-4
-2                        -0.7857366971712834      18.18181818181816        6.490360579730944E-4
-2                        -0.7857366971712794      18.881118881118866       5.836815348444245E-4
-2                        -0.2785736697171294      18.671328671328652       2.7379183562505966E-4
-2                        0.23858622013304528      18.44755244755242        3.348350595147488E-4
-2                        0.7857366971712811       18.881118881118873       6.944204369867864E-4
-2                        1.392868348585639        19.23076923076922        6.930472797183955E-4
-2                        2                        19.580419580419576       7.545865710280687E-4
-2                        -1.3928683485856386      19.23076923076922        4.910448030001842E-4
-2                        -2                       19.580419580419576       4.973425182220745E-4
-2                        1.3928683485856417       19.930069930069926       5.202640853091911E-4
-2                        2                        20.279720279720273       7.451440128051086E-4
-2                        -0.7857366971712798      19.580419580419573       5.464504020516746E-4
-2                        -0.2785736697171276      19.370629370629356       1.69485961149035E-4
-2                        0.2385862201330453       19.146853146853125       4.566709345923867E-4
-2                        0.7857366971712789       19.580419580419573       5.223494367483911E-4
-2                        0.23858622013304487      19.846153846153825       4.398477670420347E-4
-2                        -1.3928683485856412      19.930069930069923       6.492713980632464E-4
-2                        -2                       20.279720279720273       7.338813903018897E-4
-2                        -1.3928683485856386      20.629370629370626       6.692517608247376E-4
-2                        -0.7857366971712799      20.279720279720266       8.296083135459551E-4
-2                        -0.2785736697171277      20.069930069930063       4.7314806181347914E-4
-2                        0.7857366971712808       20.27972027972026        7.199141563986926E-4
-2                        2                        20.979020979020977       6.149325476459197E-4
-2                        1.3928683485856386       20.629370629370626       5.910129460206006E-4
-2                        1.3928683485856421       21.328671328671323       4.396464759999441E-4
-2                        -2                       20.979020979020977       4.1199112247109366E-4
-2                        -0.7857366971712799      20.97902097902098        7.713456814078145E-4
-2                        2                        21.678321678321677       7.442120620583946E-4
-2                        -0.2785736697171277      20.769230769230752       6.320336327154891E-4
-2                        0.23858622013304576      20.54545454545453        6.739437713571468E-4
-2                        -1.3928683485856412      21.328671328671323       5.560475671484813E-4
-2                        -2                       21.678321678321677       4.079389098543531E-4
-2                        0.785736697171282        20.97902097902097        6.357408905352603E-4
-2                        0.2385862201330462       21.244755244755233       3.902806231333093E-4
-2                        0.7857366971712816       21.678321678321673       2.1184993848444194E-4
-2                        1.3928683485856403       22.02797202797202        4.670888530487806E-4
-2                        2                        22.377622377622373       3.5145234345356646E-4
-2                        -0.2785736697171268      21.46853146853146        4.380766982740749E-4
-2                        -0.7857366971712825      21.678321678321673       3.522444451887563E-4
-2                        -1.39286834858564        22.02797202797202        2.328543794421113E-4
-2                        -2                       22.377622377622373       5.277451055403193E-4
-2                        -1.392868348585643       22.72727272727272        2.128712610560743E-4
-2                        -2                       23.07692307692307        4.2271790481693055E-4
-2                        1.3928683485856435       22.72727272727272        1.9425874101990258E-4
-2                        2                        23.07692307692307        1.6019038088585806E-4
-2                        0.7857366971712834       22.37762237762237        2.9033331995952165E-4
-2                        -0.7857366971712834      22.37762237762237        9.410647700330252E-5
-2                        0.23858622013304753      21.944055944055933       4.3684411052232744E-4
-2                        -0.2785736697171278      22.167832167832152       3.055620123143154E-4
-2                        0.2385862201330462       22.643356643356626       3.953976746770907E-4
-2                        -0.27857366971712816     22.867132867132856       9.081238937724122E-5
-2                        -0.7857366971712803      23.076923076923066       8.965646038621583E-5
-2                        -1.3928683485856395      23.426573426573427       7.936177310797545E-5
-2                        -2                       23.776223776223766       2.755357527188677E-4
-2                        0.785736697171282        23.07692307692306        2.4802476839245216E-4
-2                        2                        23.776223776223766       2.7767287575068813E-5
-2                        1.39286834858564         23.426573426573427       2.5074326318442917E-5
-2                        0.23858622013304576      23.342657342657326       3.1093075095837915E-4
-2                        -1.3928683485856412      24.125874125874113       4.2565759706568034E-4
-2                        -2                       24.47552447552447        1.3536284372527545E-4
-2                        -0.7857366971712824      23.776223776223766       2.324309221413848E-4
-2                        -0.2785736697171294      23.566433566433552       2.2973534153697848E-4
-2                        0.7857366971712824       23.776223776223766       1.5389608305109987E-4
-2                        -0.2785736697171277      24.265734265734256       1.7399422019707492E-4
-2                        0.23858622013304617      24.04195804195803        2.3483532367378555E-4
-2                        2                        24.47552447552447        1.840195097514029E-4
-2                        1.3928683485856421       24.125874125874113       1.985765535388342E-5
-2                        -0.7857366971712811      24.475524475524463       4.429880125531803E-4
-2                        -0.2785736697171277      24.965034965034956       2.6951451333923478E-5
-2                        0.7857366971712816       24.47552447552447        1.021855492644992E-4
-2                        0.2385862201330471       24.741258741258726       1.159970245531846E-4
-2                        1.3928683485856403       24.825174825174816       2.3609494449527968E-4
-2                        -1.3928683485856403      24.825174825174816       3.064270429944736E-4
-2.0000000000000004       -2.0000000000000004      25.174825174825166       3.6576415651474966E-5
-2                        -0.7857366971712835      25.174825174825166       2.927969254505012E-4
-2.0000000000000004       2.0000000000000004       25.174825174825166       4.563121853920363E-4
-2                        -1.3928683485856435      25.52447552447551        2.911415664028367E-4
-2                        -2                       25.87412587412586        1.2224478628882306E-4
-2                        -0.7857366971712829      25.874125874125852       4.931199899925027E-4
-2                        -0.2785736697171286      25.664335664335642       2.9108950905631014E-4
-2                        0.23858622013304576      25.44055944055942        3.8043780908181556E-4
-2                        0.7857366971712834       25.174825174825166       1.7483173426359377E-4
-2                        1.3928683485856435       25.52447552447551        4.1880696336773593E-4
-2                        2                        25.87412587412586        2.670315185425185E-4
-2                        0.7857366971712825       25.874125874125852       5.129330695355308E-4