% Model:              Cav_Hex_Unif_flux_v5.1.2 - Wall Distn.mph
% Version:            COMSOL 5.5.0.359
% Date:               May 16 2022, 16:44
% Dimension:          3
% Nodes:              2456
% Expressions:        1
% Description:        Surface
% x                       y                        z                        Color
3.1091887578916704        -4                       0.9141057645898676       0.09497363569243908
3.999999999999999         -3.999999999999999       1.3157894736842068       0.0830228475879191
4                         -4                       0                        0.0974841729484952
2.6666666666666665        -4                       0                        0.12316229813093844
2.960349857095677         -4                       2.0112046564970676       0.08892607326576195
3.999999999999999         -3.999999999999999       2.6315789473684137       0.08861429104692219
-3.0758370637793435       -4                       0.8833550143143354       0.08625046697175089
-2.666666666666668        -4                       0                        0.07895773280412845
-4                        -4                       0                        0.08231975326195184
-3.999999999999999        -3.999999999999999       1.3157894736842068       0.09877734340158634
-1.9773752169223693       -4                       1.0299452043621926       0.10235444955287372
-1.3333333333333344       -3.999999999999999       0                        0.10949997652447992
1.9189272656960077        -4                       1.2435346927680335       0.11742082843801561
1.3333333333333326        -4                       0                        0.1466492489267245
-0.6666666666666679       -4                       1.1471949848797847       0.10495904031269299
-1.7208456881689926E-15   -3.999999999999999       0                        0.12015363626031657
0.5689913898402228        -4                       1.1116586170553335       0.10945757194801597
0.9548346964183834        -4                       2.1123169603324725       0.09281061633405129
1.8374395040658127        -4                       2.6758917200519483       0.10035677254770793
2.8581227149680184        -4                       3.289473684210531        0.10440051095844814
3.999999999999999         -3.999999999999999       3.947368421052621        0.1019256721814621
-3.999999999999999        -3.999999999999999       2.6315789473684137       0.10933226300777643
-2.7487192587958145       -4                       2.0653144274501267       0.10958222602991581
-1.3730283122923872       -4                       2.0838067995287646       0.10077069756450269
-1.8573657331396822       -4                       2.9352509224546353       0.08821404384188829
-2.8599075272384535       -4                       3.355731830803621        0.10738528956492498
-3.999999999999999        -3.999999999999999       3.947368421052621        0.09892656090308011
-0.12648028973971748      -4                       2.1669050643517322       0.09649632120797924
-0.861953228196219        -4                       3.1579922234977964       0.10455877370328437
-1.7812792745967414       -4                       3.9665791990808557       0.103077192430362
0.5750990887494919        -4                       3.36346599852021         0.11568840543787313
2.8581227149680113        -4                       4.605263157894724        0.0989158900819173
3.999999999999999         -3.999999999999999       5.263157894736827        0.07805914011472545
1.742493669930422         -4                       4.027479320740567        0.12927255909133134
-0.6110079663951211       -4                       4.43051753599315         0.11929152639470032
-2.8581227149680113       -4                       4.605263157894724        0.10839386548661938
-3.999999999999999        -3.999999999999999       5.263157894736827        0.07908795780744378
-2.8581227149680126       -4                       5.92105263157896         0.0890285238856217
-1.716245429936019        -4                       5.263157894736869        0.10953574622753319
-4                        -4                       6.578947368421037        0.0788830817807249
2.8581227149680117        -4                       5.921052631578937        0.09442004733645819
4                         -4                       6.578947368421037        0.08425834737187554
2.858627588811577         -4                       7.250002914604769        0.10894358597725062
3.999999999999999         -3.999999999999999       7.894736842105244        0.08051789275059289
1.7153511999615885        -4                       5.352932535046651        0.11570365563259742
1.7149989508427765        -4                       6.699172966367451        0.12187889666161483
0.5717463669678473        -4                       4.880753105016545        0.12202797422179375
-0.5790826768682962       -4                       5.762404755957795        0.11866875237943263
0.5716245429936002        -4                       6.1842105263158365       0.11054816669997725
-3.999999999999999        -3.999999999999999       7.894736842105244        0.08054854420771111
-2.8581227149680126       -4                       7.236842105263152        0.09737843132675687
-1.7162454299360317       -4                       6.578947368421084        0.11622008807399088
-2.8581227149680126       -4                       8.552631578947345        0.09518661671885213
-0.5737820992762012       -4                       7.078821845291261        0.11895849133112646
-4                        -4                       9.210526315789451        0.06789708194735165
0.5710584479391512        -4                       7.53404758275108         0.12456504646405782
1.7151479891718493        -4                       8.000000000000028        0.1267417380998106
2.8581227149680117        -4                       8.552631578947343        0.10354715537446839
4                         -4                       9.210526315789451        0.0807482659943927
-1.7162454299360317       -4                       7.894736842105255        0.11311492848092496
-0.5728986696775182       -4                       8.39471592158365         0.12296662535221715
-4                        -4                       10.52631578947366        0.08409556152631908
-2.858122714968013        -4                       9.86842105263156         0.09431272203788792
-1.7162454299360252       -4                       9.210526315789448        0.11297353013782735
0.5712599735804           -4                       8.84736423694834         0.12636818914515877
1.7151479891718504        -4                       9.3157894736842          0.10535574387687145
2.858122714968012         -4                       9.868421052631557        0.09127688996156232
4                         -4                       10.52631578947366        0.07679014892080595
-3.999999999999999        -3.999999999999999       11.842105263157865       0.07823182481791612
-2.8581227149680193       -4                       11.184210526315754       0.1027247559561104
-0.5727514314110698       -4                       9.710522829035872        0.1257260643353153
-1.7162454299360341       -4                       10.52631578947365        0.11104558638430194
1.7151479891718528        -4                       10.631578947368414       0.11777185751652242
-4                        -4                       13.15789473684207        0.0637054437349794
-2.8581227149680126       -4                       12.499999999999966       0.07915965088687854
2.8581227149680184        -4                       11.184210526315773       0.09565348885364276
3.999999999999999         -3.999999999999999       11.842105263157865       0.08582696106817993
0.5712894212336919        -4                       10.163157197386141       0.11289313629034992
-1.7162454299360226       -4                       11.842105263157855       0.10323801373551177
-0.5727268916999906       -4                       11.02631520834807        0.11882080911429461
1.7151479891718537        -4                       11.94736842105264        0.11256010883439209
0.5712943291759094        -4                       11.478947252195915       0.11790999432637661
2.8581227149680126        -4                       12.499999999999966       0.0882571184089821
4                         -4                       13.15789473684207        0.06269994806771294
1.7151479891718528        -4                       13.263157894736855       0.10487330653266502
-0.5727228017481423       -4                       12.342105166303629       0.10513957050711255
0.5712951471662784        -4                       12.794736822734421       0.11028639642065664
-3.999999999999999        -3.999999999999999       14.47368421052628        0.058106687756089605
-2.8581227149680117       -4                       13.81578947368418        0.06237405200895096
-1.7162454299360193       -4                       13.15789473684209        0.0825107708675676
2.8581227149680117        -4                       13.815789473684179       0.08580759373763373
3.999999999999999         -3.999999999999999       14.47368421052628        0.0585300620735395
2.8581227149680193        -4                       15.131578947368407       0.07208127850864797
4                         -4                       15.789473684210485       0.041535361718044006
1.715147989171852         -4                       14.578947368421048       0.09854084507246297
0.5712952834980057        -4                       14.110526312561035       0.11312719399177222
-0.5727221200895052       -4                       13.657894720699716       0.1103924560411394
-4                        -4                       15.789473684210485       0.04544824270939991
-2.8581227149680153       -4                       15.131578947368386       0.06384368249068174
-1.716245429936027        -4                       14.473684210526304       0.09182854603141677
-0.5727220064797319       -4                       14.973684207835925       0.09790052241208465
-1.7162454299360297       -4                       15.789473684210499       0.07740151368641492
2.8581227149680126        -4                       16.447368421052587       0.04597114682040443
4                         -4                       17.10526315789469        0.03742025320775628
-2.8581227149680126       -4                       16.447368421052587       0.05445084166941084
-4                        -4                       17.10526315789469        0.03559867707307343
2.8581227149680126        -4                       17.763157894736814       0.04093650821217893
3.999999999999999         -3.999999999999999       18.4210526315789         0.03581064094061925
0.5712953062199597        -4                       15.426315788935607       0.08037080990215356
1.7151479891718522        -4                       15.894736842105264       0.06092558714461523
-0.5727219875447684       -4                       16.289473683762136       0.06665562201273927
1.7151479891718535        -4                       17.210526315789455       0.05172761861402975
0.5712953100069527        -4                       16.74210526306823        0.05884584855267639
-1.71624542993602         -4                       17.10526315789471        0.06521595752568134
-0.5727219843889415       -4                       17.605263157820005       0.06619635873879658
-3.999999999999999        -3.999999999999999       18.4210526315789         0.03390955786209616
-2.8581227149680126       -4                       17.763157894736814       0.04512200561360879
0.571295310638118         -4                       18.05789473682715        0.0645832278184512
-1.7162454299360317       -4                       18.421052631578917       0.05229689463950351
-3.999999999999999        -3.999999999999999       19.73684210526311        0.04151854187919234
-2.8581227149680117       -4                       19.078947368421005       0.04415809736322577
2.8581227149680117        -4                       19.078947368421005       0.03703877650970975
1.7151479891718504        -4                       18.526315789473667       0.0485553178674722
3.999999999999999         -3.999999999999999       19.73684210526311        0.03570104521302045
-1.7162454299360226       -4                       19.73684210526313        0.05142327790161765
-2.858122714968013        -4                       20.39473684210523        0.03725900763598147
-4                        -4                       21.05263157894732        0.01767581892056561
-0.572721983862972        -4                       18.921052631566475       0.05756824420302609
0.5712953107433112        -4                       19.373684210523813       0.05124151401671717
-0.5727219837753097       -4                       20.236842105261065       0.03933988927877321
2.8581227149680117        -4                       20.394736842105218       0.030971215509162413
4                         -4                       21.05263157894732        0.032857296741152
1.7151479891718522        -4                       19.842105263157862       0.045865634293598634
0.5712953107608439        -4                       20.689473684210096       0.04974888969695541
-1.7162454299360306       -4                       21.052631578947334       0.04214747646630695
-2.8581227149680153       -4                       21.710526315789423       0.02502152906309657
-4                        -4                       22.368421052631522       0.01831792849492824
-0.5727219837607017       -4                       21.55263157894701        0.04273970005168413
0.5712953107637657        -4                       22.00526315789466        0.03598406346505333
2.8581227149680153        -4                       21.7105263157894         0.028855362931764366
4                         -4                       22.368421052631522       0.025661974766923418
1.715147989171852         -4                       21.157894736842074       0.03360290180980987
-1.7162454299360297       -4                       22.368421052631536       0.03095639644347381
-2.8581227149680126       -4                       23.026315789473628       0.021801925213566744
-4                        -4                       23.68421052631573        0.02556134947812194
1.715147989171852         -4                       22.47368421052628        0.03017890049227528
2.8581227149680117        -4                       23.026315789473625       0.02698826099712473
4                         -4                       23.68421052631573        0.022690465108957638
-0.5727219837582656       -4                       22.868421052631515       0.025175538474158394
0.5712953107642518        -4                       23.32105263157893        0.025186812751963494
1.7151479891718495        -4                       23.789473684210506       0.02949559789509126
2.8581227149680117        -4                       24.34210526315784        0.023687185904753185
4                         -4                       24.999999999999943       0.02588808133246992
-1.7162454299360252       -4                       23.68421052631573        0.02193355339358576
-4                        -4                       24.999999999999943       0.021688817522684496
-2.858122714968013        -4                       24.342105263157844       0.017947142087877618
-0.5727219837578598       -4                       24.184210526315752       0.026003978643244694
-4                        -4                       26.31578947368415        0.013970723211646477
-2.8581227149680153       -4                       25.657894736842056       0.016328641404703803
-1.716245429936027        -4                       24.999999999999943       0.023916949635981243
-0.5727219837577887       -4                       25.499999999999968       0.02441365419882219
0.5712953107643335        -4                       24.636842105263145       0.022858118113892194
1.715147989171851         -4                       25.10526315789472        0.01690729883629829
2.8581227149680153        -4                       25.657894736842056       0.017562659823446455
4                         -4                       26.31578947368415        0.01547827706893457
-1.7162454299360226       -4                       26.31578947368414        0.02573116390843805
-2.85812271496801         -4                       26.97368421052626        0.011633382788975478
-4                        -4                       27.631578947368357       0.010576742214718425
1.7151479891718513        -4                       26.421052631578913       0.016772440759389166
2.858122714968009         -4                       26.97368421052626        0.017810588171705378
4                         -4                       27.631578947368357       0.016885652906448622
2.8581227149680153        -4                       28.289473684210463       0.011465552104527377
4                         -4                       28.947368421052563       0.011929421843596522
0.5712953107643477        -4                       25.95263157894736        0.0142192598993161
-0.5727219837577797       -4                       26.81578947368418        0.017907964282589155
-1.7162454299360252       -4                       27.631578947368386       0.017636095324377748
-4                        -4                       28.947368421052563       0.011627048694720893
-2.8581227149680153       -4                       28.289473684210463       0.012532658713233403
-2.8581227149680153       -4                       29.60526315789468        0.010048819820438417
-1.7162454299360288       -4                       28.947368421052577       0.013186025695203557
-0.5727219837577788       -4                       28.131578947368396       0.013150725645012351
0.5712953107643495        -4                       27.268421052631563       0.013679684518421768
1.7151479891718509        -4                       27.73684210526311        0.012419566077199032
2.8581227149680153        -4                       29.60526315789468        0.012100002766393702
4                         -4                       30.263157894736768       0.01311154396572208
1.715147989171851         -4                       29.05263157894733        0.010491539456078688
-4                        -4                       30.263157894736768       0.006590448720413824
-4                        -4                       31.578947368420977       0.010818186428202904
-2.8581227149680126       -4                       30.92105263157888        0.010108234472562991
-1.7162454299360308       -4                       30.263157894736793       0.01256877162978092
-0.5727219837577806       -4                       29.447368421052616       0.009877198353336012
0.5712953107643486        -4                       28.58421052631578        0.012471918919041978
0.5712953107643486        -4                       29.89999999999997        0.01128156977857668
2.8581227149680117        -4                       30.921052631578878       0.010195448067998571
4                         -4                       31.578947368420977       0.004281196410929913
1.7151479891718522        -4                       30.368421052631533       0.011407168190424819
-1.7162454299360317       -4                       31.578947368420984       0.00765696222171583
1.7151479891718528        -4                       31.684210526315738       0.008737451653866931
2.8581227149680157        -4                       32.236842105263065       0.007800442173974184
4                         -4                       32.89473684210518        0.011941746742091716
-2.8581227149680126       -4                       32.23684210526307        0.008134109298724155
-4                        -4                       32.89473684210518        0.007670719772938717
-0.5727219837577788       -4                       30.763157894736814       0.010275585572096175
0.5712953107643501        -4                       31.215789473684165       0.009288555953311604
-0.572721983757777        -4                       32.078947368421005       0.007978938159644643
-1.7162454299360252       -4                       32.894736842105196       0.006234178168963122
1.7151479891718528        -4                       32.99999999999994        0.0060963116800522715
0.5712953107643504        -4                       32.53157894736838        0.007484398044314013
0.5712953107643501        -4                       33.84736842105258        0.006611560977140696
2.858122714968009         -4                       33.55263157894728        0.009118822598305798
3.999999999999999         -3.999999999999999       34.210526315789394       0.01006891512650374
1.715147989171851         -4                       34.31578947368414        0.007405442345539997
2.8581227149680215        -4                       34.868421052631504       0.007903799852169961
4                         -4                       35.526315789473585       0.005456393033501132
-0.5727219837577797       -4                       33.39473684210521        0.0071469967874212
-3.999999999999999        -3.999999999999999       34.210526315789394       0.008901865948041073
-2.85812271496801         -4                       33.55263157894729        0.009114204683269548
-1.7162454299360288       -4                       34.2105263157894         0.008454579387568968
-2.8581227149680215       -4                       34.868421052631504       0.008632842626130524
-4                        -4                       35.526315789473585       0.007678375112720993
1.7151479891718528        -4                       35.63157894736837        0.008748878532558223
0.5712953107643495        -4                       35.163157894736784       0.006842490827351399
-0.5727219837577797       -4                       34.710526315789416       0.007383149974968362
2.85812271496801          -4                       36.184210526315695       0.007538216833982603
4                         -4                       36.842105263157805       0.004228592836465347
0.5712953107643506        -4                       36.478947368421          0.006052981558173628
2.858122714968012         -4                       37.4999999999999         0.004783671651555303
4                         -4                       38.15789473684202        0.005591511389065921
1.715147989171852         -4                       36.94736842105255        0.005397034920900087
-1.7162454299360344       -4                       35.52631578947359        0.008175189622527187
-0.5727219837577779       -4                       36.026315789473614       0.005871884192286506
-4                        -4                       36.842105263157805       0.009205693224867806
-2.85812271496801         -4                       36.184210526315695       0.009768501654985185
-2.8581227149680126       -4                       37.499999999999915       0.008096972026185735
-1.7162454299360235       -4                       36.84210526315781        0.008067259430257453
-4                        -4                       38.15789473684202        0.010077680571303203
-0.5727219837577745       -4                       37.34210526315784        0.005556029840679668
0.5712953107643506        -4                       37.794736842105216       0.005476414053184008
2.85812271496801          -4                       38.81578947368414        0.0080285795963663
4                         -4                       39.47368421052623        0.007858812760444376
1.7151479891718493        -4                       38.26315789473678        0.00745007544059767
-1.7162454299360197       -4                       38.157894736842024       0.004374601376580035
-4                        -4                       39.47368421052623        0.007178549485670244
-2.8581227149680073       -4                       38.815789473684134       0.005276147184982454
-0.5727219837577779       -4                       38.657894736842046       0.006342273150299049
1.7151479891718484        -4                       39.57894736842099        0.00992024506712291
-2.8581227149680193       -4                       40.13157894736834        0.004290653968732866
-3.999999999999999        -3.999999999999999       40.78947368421043        0.006961157574332754
0.5712953107643486        -4                       39.11052631578943        0.007723653541006253
-1.7162454299360288       -4                       39.47368421052625        0.004996731172427023
-0.5727219837577806       -4                       39.97368421052625        0.0065211330530995275
2.8581227149680153        -4                       40.13157894736833        0.007729160743486512
3.999999999999999         -3.999999999999999       40.78947368421043        0.004310543714845987
2.858122714968009         -4                       41.44736842105253        0.0061634642750098825
4                         -4                       42.10526315789464        0.007578324326846298
1.715147989171852         -4                       40.894736842105196       0.007016201222363371
0.5712953107643477        -4                       40.42631578947362        0.0038487392152308643
-1.7162454299360317       -4                       40.78947368421044        0.003587330739786961
-0.5727219837577788       -4                       41.289473684210456       0.0043220598882423725
-4                        -4                       42.10526315789464        0.010099706410235493
-2.8581227149680126       -4                       41.447368421052545       0.006517713095047507
-2.8581227149680153       -4                       42.76315789473675        0.0074842679957732
2.8581227149680153        -4                       42.76315789473675        0.0062267227860951105
4                         -4                       43.42105263157885        0.006398856336173491
1.7151479891718524        -4                       42.2105263157894         0.007369470168590264
-4                        -4                       43.42105263157885        0.007253134694633116
-1.716245429936027        -4                       42.10526315789465        0.005044246866864536
0.5712953107643488        -4                       41.74210526315784        0.003170036498652275
-0.5727219837577788       -4                       42.605263157894655       0.003966676588664956
0.5712953107643495        -4                       43.05789473684205        0.005151171284092961
-2.8581227149680126       -4                       44.07894736842095        0.0029385552691719775
-1.7162454299360297       -4                       43.421052631578874       0.004640738668774679
-4                        -4                       44.736842105263044       0.006111383850383155
2.8581227149680117        -4                       44.07894736842094        0.00429355262409719
4                         -4                       44.736842105263044       0.006472675300587485
1.7151479891718506        -4                       43.52631578947361        0.006173790646074467
1.715147989171852         -4                       44.84210526315782        0.005989296647851412
-0.5727219837577797       -4                       43.921052631578874       0.005122636506679553
0.5712953107643488        -4                       44.37368421052624        0.003997307354079629
-0.5727219837577797       -4                       45.23684210526309        0.004844307992474037
-4                        -4                       46.05263157894726        0.008918500480153886
-2.8581227149680126       -4                       45.394736842105154       0.005732579632285396
-1.7162454299360288       -4                       44.736842105263065       0.004644426346033032
2.8581227149680117        -4                       45.39473684210515        0.006541785720977213
4                         -4                       46.05263157894726        0.004015293134157503
2.8581227149680153        -4                       46.71052631578936        0.0047487639404186766
3.999999999999999         -3.999999999999999       47.368421052631476       0.003081785113592352
1.7151479891718522        -4                       46.15789473684201        0.008745644326772585
0.5712953107643504        -4                       45.68947368421045        0.005837592007955486
-1.7162454299360308       -4                       46.05263157894728        0.00582764998518183
-3.999999999999999        -3.999999999999999       47.368421052631476       0.006803911418145815
-2.8581227149680153       -4                       46.71052631578936        0.008341074003405348
-0.572721983757777        -4                       46.55263157894728        0.002258218290369858
-1.7162454299360244       -4                       47.36842105263148        0.004973669095267079
-2.8581227149680135       -4                       48.02631578947357        0.005583549701909565
-4                        -4                       48.68421052631568        0.006356673045419549
2.85812271496801          -4                       48.02631578947359        0.004279172268254967
4                         -4                       48.68421052631568        0.001143832439661239
1.715147989171851         -4                       47.47368421052622        0.005201985622041431
0.5712953107643504        -4                       47.00526315789465        0.004649546316560591
-0.5727219837577753       -4                       47.86842105263149        0.005121233813255378
-1.7162454299360244       -4                       48.68421052631569        0.003507957489441029
-2.85812271496801         -4                       49.34210526315779        0.004645392735083746
-4                        -4                       49.99999999999989        0.005211402417094194
2.85812271496801          -4                       49.34210526315779        0.0020014816272020297
4                         -4                       49.99999999999989        0.003826517979006143
1.7151479891718493        -4                       48.78947368421043        0.0037157716639310196