% Model:              Cav_Hex_Unif_flux_v5.1.2 - Wall Distn.mph
% Version:            COMSOL 5.5.0.359
% Date:               May 16 2022, 16:44
% Dimension:          3
% Nodes:              2456
% Expressions:        1
% Description:        Surface
% x                       y                        z                        Color
3.1091887578916704        -4                       0.9141057645898676       0.10327111249876808
3.999999999999999         -3.999999999999999       1.3157894736842068       0.09186259222650607
4                         -4                       0                        0.10278360125152561
2.6666666666666665        -4                       0                        0.12957724054914652
2.960349857095677         -4                       2.0112046564970676       0.10136207400011084
3.999999999999999         -3.999999999999999       2.6315789473684137       0.10170373346182503
-3.0758370637793435       -4                       0.8833550143143354       0.10042944399537394
-2.666666666666668        -4                       0                        0.09140244296935851
-4                        -4                       0                        0.0952402647536746
-3.999999999999999        -3.999999999999999       1.3157894736842068       0.11894104864727484
-1.9773752169223693       -4                       1.0299452043621926       0.11379618452897688
-1.3333333333333344       -3.999999999999999       0                        0.11999031190435837
1.9189272656960077        -4                       1.2435346927680335       0.12750503168952215
1.3333333333333326        -4                       0                        0.1563104561724662
-0.6666666666666679       -4                       1.1471949848797847       0.11369354646038778
-1.7208456881689926E-15   -3.999999999999999       0                        0.13121274188366389
0.5689913898402228        -4                       1.1116586170553335       0.1171487291100437
0.9548346964183834        -4                       2.1123169603324725       0.09973263106178087
1.8374395040658127        -4                       2.6758917200519483       0.11195701290991088
2.8581227149680184        -4                       3.289473684210531        0.120835312064266
3.999999999999999         -3.999999999999999       3.947368421052621        0.12151417600507579
-3.999999999999999        -3.999999999999999       2.6315789473684137       0.13158074448547938
-2.7487192587958145       -4                       2.0653144274501267       0.12570109713475455
-1.3730283122923872       -4                       2.0838067995287646       0.10936486140621131
-1.8573657331396822       -4                       2.9352509224546353       0.0984044868390613
-2.8599075272384535       -4                       3.355731830803621        0.1234733991571881
-3.999999999999999        -3.999999999999999       3.947368421052621        0.11941363571783759
-0.12648028973971748      -4                       2.1669050643517322       0.10468259552900729
-0.861953228196219        -4                       3.1579922234977964       0.11692665061608241
-1.7812792745967414       -4                       3.9665791990808557       0.11787412069393184
0.5750990887494919        -4                       3.36346599852021         0.13104475692509757
2.8581227149680113        -4                       4.605263157894724        0.11757070643022932
3.999999999999999         -3.999999999999999       5.263157894736827        0.09863876345910537
1.742493669930422         -4                       4.027479320740567        0.145357254617141
-0.6110079663951211       -4                       4.43051753599315         0.13701971642396038
-2.8581227149680113       -4                       4.605263157894724        0.12616401693371462
-3.999999999999999        -3.999999999999999       5.263157894736827        0.09487751393833843
-2.8581227149680126       -4                       5.92105263157896         0.10265089260914738
-1.716245429936019        -4                       5.263157894736869        0.12562088244046574
-4                        -4                       6.578947368421037        0.094594779358796
2.8581227149680117        -4                       5.921052631578937        0.11243214204580632
4                         -4                       6.578947368421037        0.10399255141422499
2.858627588811577         -4                       7.250002914604769        0.1261485615435919
3.999999999999999         -3.999999999999999       7.894736842105244        0.09793115652678615
1.7153511999615885        -4                       5.352932535046651        0.12929049195818088
1.7149989508427765        -4                       6.699172966367451        0.13607864348373921
0.5717463669678473        -4                       4.880753105016545        0.14085451500457213
-0.5790826768682962       -4                       5.762404755957795        0.13601100098199448
0.5716245429936002        -4                       6.1842105263158365       0.125135843780985
-3.999999999999999        -3.999999999999999       7.894736842105244        0.09716721303051294
-2.8581227149680126       -4                       7.236842105263152        0.11635210585798611
-1.7162454299360317       -4                       6.578947368421084        0.13379487534983905
-2.8581227149680126       -4                       8.552631578947345        0.11431824143312395
-0.5737820992762012       -4                       7.078821845291261        0.13572941657700002
-4                        -4                       9.210526315789451        0.08147765655208779
0.5710584479391512        -4                       7.53404758275108         0.14039118249692958
1.7151479891718493        -4                       8.000000000000028        0.1401460806897486
2.8581227149680117        -4                       8.552631578947343        0.12210193935365608
4                         -4                       9.210526315789451        0.09609414489728445
-1.7162454299360317       -4                       7.894736842105255        0.13283130265412324
-0.5728986696775182       -4                       8.39471592158365         0.139192920917825
-4                        -4                       10.52631578947366        0.09687677746892494
-2.858122714968013        -4                       9.86842105263156         0.10795020096363434
-1.7162454299360252       -4                       9.210526315789448        0.1289208089594823
0.5712599735804           -4                       8.84736423694834         0.14054530778022303
1.7151479891718504        -4                       9.3157894736842          0.12115360380823376
2.858122714968012         -4                       9.868421052631557        0.11044718217869283
4                         -4                       10.52631578947366        0.09388131822536357
-3.999999999999999        -3.999999999999999       11.842105263157865       0.0917217590815768
-2.8581227149680193       -4                       11.184210526315754       0.1191041355568276
-0.5727514314110698       -4                       9.710522829035872        0.1400670908899674
-1.7162454299360341       -4                       10.52631578947365        0.12750450604777022
1.7151479891718528        -4                       10.631578947368414       0.13454060581731647
-4                        -4                       13.15789473684207        0.08236211614032186
-2.8581227149680126       -4                       12.499999999999966       0.09381339160496456
2.8581227149680184        -4                       11.184210526315773       0.11398286001858632
3.999999999999999         -3.999999999999999       11.842105263157865       0.10110867743814211
0.5712894212336919        -4                       10.163157197386141       0.1301699249594153
-1.7162454299360226       -4                       11.842105263157855       0.12190654046126582
-0.5727268916999906       -4                       11.02631520834807        0.13351404911039014
1.7151479891718537        -4                       11.94736842105264        0.13078189437200397
0.5712943291759094        -4                       11.478947252195915       0.13317160461806368
2.8581227149680126        -4                       12.499999999999966       0.10364515501805795
4                         -4                       13.15789473684207        0.07571079128207375
1.7151479891718528        -4                       13.263157894736855       0.1204558527965377
-0.5727228017481423       -4                       12.342105166303629       0.1179920982223628
0.5712951471662784        -4                       12.794736822734421       0.12809578172324096
-3.999999999999999        -3.999999999999999       14.47368421052628        0.08125273935159852
-2.8581227149680117       -4                       13.81578947368418        0.08009776306822362
-1.7162454299360193       -4                       13.15789473684209        0.09685718780960095
2.8581227149680117        -4                       13.815789473684179       0.0997267139982203
3.999999999999999         -3.999999999999999       14.47368421052628        0.07481291392457667
2.8581227149680193        -4                       15.131578947368407       0.0893331389851431
4                         -4                       15.789473684210485       0.056669070030172554
1.715147989171852         -4                       14.578947368421048       0.11439097877476456
0.5712952834980057        -4                       14.110526312561035       0.1281730906617943
-0.5727221200895052       -4                       13.657894720699716       0.12651138371230908
-4                        -4                       15.789473684210485       0.06295014938590475
-2.8581227149680153       -4                       15.131578947368386       0.08167308241739533
-1.716245429936027        -4                       14.473684210526304       0.10882044362940817
-0.5727220064797319       -4                       14.973684207835925       0.11360835372244055
-1.7162454299360297       -4                       15.789473684210499       0.09177539407785666
2.8581227149680126        -4                       16.447368421052587       0.0619999584587771
4                         -4                       17.10526315789469        0.054319161929224376
-2.8581227149680126       -4                       16.447368421052587       0.0695457859630073
-4                        -4                       17.10526315789469        0.046860119223866105
2.8581227149680126        -4                       17.763157894736814       0.05765352583656355
3.999999999999999         -3.999999999999999       18.4210526315789         0.04752226532043904
0.5712953062199597        -4                       15.426315788935607       0.09446677149857068
1.7151479891718522        -4                       15.894736842105264       0.07780720875670041
-0.5727219875447684       -4                       16.289473683762136       0.0819988783550336
1.7151479891718535        -4                       17.210526315789455       0.06710026521006078
0.5712953100069527        -4                       16.74210526306823        0.07093410886479404
-1.71624542993602         -4                       17.10526315789471        0.08040387855483765
-0.5727219843889415       -4                       17.605263157820005       0.08092019316097358
-3.999999999999999        -3.999999999999999       18.4210526315789         0.04294882210240162
-2.8581227149680126       -4                       17.763157894736814       0.05687980147129922
0.571295310638118         -4                       18.05789473682715        0.07682879308850903
-1.7162454299360317       -4                       18.421052631578917       0.06594681549340227
-3.999999999999999        -3.999999999999999       19.73684210526311        0.05524402736518458
-2.8581227149680117       -4                       19.078947368421005       0.058050039296542504
2.8581227149680117        -4                       19.078947368421005       0.04968238867361776
1.7151479891718504        -4                       18.526315789473667       0.06296227526417299
3.999999999999999         -3.999999999999999       19.73684210526311        0.04854889462876111
-1.7162454299360226       -4                       19.73684210526313        0.06712921370335702
-2.858122714968013        -4                       20.39473684210523        0.05045508510964653
-4                        -4                       21.05263157894732        0.02641705258557019
-0.572721983862972        -4                       18.921052631566475       0.07030277176298054
0.5712953107433112        -4                       19.373684210523813       0.06553106958756182
-0.5727219837753097       -4                       20.236842105261065       0.05227697686579644
2.8581227149680117        -4                       20.394736842105218       0.045147167854317966
4                         -4                       21.05263157894732        0.0440221151995378
1.7151479891718522        -4                       19.842105263157862       0.061482689603785834
0.5712953107608439        -4                       20.689473684210096       0.06915625769221571
-1.7162454299360306       -4                       21.052631578947334       0.053805897062652375
-2.8581227149680153       -4                       21.710526315789423       0.036123642025638676
-4                        -4                       22.368421052631522       0.03248925975474725
-0.5727219837607017       -4                       21.55263157894701        0.056414544373447055
0.5712953107637657        -4                       22.00526315789466        0.04866110841992132
2.8581227149680153        -4                       21.7105263157894         0.03871182339751379
4                         -4                       22.368421052631522       0.03895619403933581
1.715147989171852         -4                       21.157894736842074       0.04785235118070355
-1.7162454299360297       -4                       22.368421052631536       0.04270221582645864
-2.8581227149680126       -4                       23.026315789473628       0.03571598631160294
-4                        -4                       23.68421052631573        0.03720631975131796
1.715147989171852         -4                       22.47368421052628        0.0395613605166996
2.8581227149680117        -4                       23.026315789473625       0.039457975321691596
4                         -4                       23.68421052631573        0.04164036142039489
-0.5727219837582656       -4                       22.868421052631515       0.03888090617177939
0.5712953107642518        -4                       23.32105263157893        0.03702590145793346
1.7151479891718495        -4                       23.789473684210506       0.04045243775005807
2.8581227149680117        -4                       24.34210526315784        0.037078077015603665
4                         -4                       24.999999999999943       0.038836482688817564
-1.7162454299360252       -4                       23.68421052631573        0.03560902569702964
-4                        -4                       24.999999999999943       0.03448315375049443
-2.858122714968013        -4                       24.342105263157844       0.029528601626914258
-0.5727219837578598       -4                       24.184210526315752       0.0393564193471994
-4                        -4                       26.31578947368415        0.02488809050447795
-2.8581227149680153       -4                       25.657894736842056       0.028289956670408286
-1.716245429936027        -4                       24.999999999999943       0.03554899500194709
-0.5727219837577887       -4                       25.499999999999968       0.03904316617428239
0.5712953107643335        -4                       24.636842105263145       0.03336316310589701
1.715147989171851         -4                       25.10526315789472        0.027380029707073372
2.8581227149680153        -4                       25.657894736842056       0.02898258659108364
4                         -4                       26.31578947368415        0.027251902550017065
-1.7162454299360226       -4                       26.31578947368414        0.040050297249140575
-2.85812271496801         -4                       26.97368421052626        0.020095076709464307
-4                        -4                       27.631578947368357       0.01736330501427868
1.7151479891718513        -4                       26.421052631578913       0.0283459709569362
2.858122714968009         -4                       26.97368421052626        0.028606915279414002
4                         -4                       27.631578947368357       0.029086026717400227
2.8581227149680153        -4                       28.289473684210463       0.019771122889114288
4                         -4                       28.947368421052563       0.02316550544586105
0.5712953107643477        -4                       25.95263157894736        0.02269166131822119
-0.5727219837577797       -4                       26.81578947368418        0.03097599947624184
-1.7162454299360252       -4                       27.631578947368386       0.02962218181672432
-4                        -4                       28.947368421052563       0.018917291242990474
-2.8581227149680153       -4                       28.289473684210463       0.021581390056698818
-2.8581227149680153       -4                       29.60526315789468        0.01653614165239777
-1.7162454299360288       -4                       28.947368421052577       0.022050151111183598
-0.5727219837577788       -4                       28.131578947368396       0.021850721260035146
0.5712953107643495        -4                       27.268421052631563       0.02497857816236033
1.7151479891718509        -4                       27.73684210526311        0.0237937249398117
2.8581227149680153        -4                       29.60526315789468        0.021105771721225856
4                         -4                       30.263157894736768       0.023435186557206573
1.715147989171851         -4                       29.05263157894733        0.017924608167225103
-4                        -4                       30.263157894736768       0.014753790637042548
-4                        -4                       31.578947368420977       0.01804525016689967
-2.8581227149680126       -4                       30.92105263157888        0.01706776278309669
-1.7162454299360308       -4                       30.263157894736793       0.018944966339737444
-0.5727219837577806       -4                       29.447368421052616       0.016002576980874383
0.5712953107643486        -4                       28.58421052631578        0.02128481860151839
0.5712953107643486        -4                       29.89999999999997        0.018763672796334726
2.8581227149680117        -4                       30.921052631578878       0.01915915278264417
4                         -4                       31.578947368420977       0.010072122883832498
1.7151479891718522        -4                       30.368421052631533       0.019674690375474806
-1.7162454299360317       -4                       31.578947368420984       0.01626006907319908
1.7151479891718528        -4                       31.684210526315738       0.01810218032870031
2.8581227149680157        -4                       32.236842105263065       0.013758049784506546
4                         -4                       32.89473684210518        0.019170918894099987
-2.8581227149680126       -4                       32.23684210526307        0.015632642263665893
-4                        -4                       32.89473684210518        0.013719417233650761
-0.5727219837577788       -4                       30.763157894736814       0.019062504279905575
0.5712953107643501        -4                       31.215789473684165       0.01776391058266265
-0.572721983757777        -4                       32.078947368421005       0.016689469279002764
-1.7162454299360252       -4                       32.894736842105196       0.016320557332600558
1.7151479891718528        -4                       32.99999999999994        0.011723526515276916
0.5712953107643504        -4                       32.53157894736838        0.015545239728693953
0.5712953107643501        -4                       33.84736842105258        0.012256854482078987
2.858122714968009         -4                       33.55263157894728        0.015736335244155335
3.999999999999999         -3.999999999999999       34.210526315789394       0.01691301606573053
1.715147989171851         -4                       34.31578947368414        0.013574965719604667
2.8581227149680215        -4                       34.868421052631504       0.014987861913648213
4                         -4                       35.526315789473585       0.012292568873272463
-0.5727219837577797       -4                       33.39473684210521        0.01502878340956723
-3.999999999999999        -3.999999999999999       34.210526315789394       0.01609444511900564
-2.85812271496801         -4                       33.55263157894729        0.017810439387305015
-1.7162454299360288       -4                       34.2105263157894         0.016444547307116822
-2.8581227149680215       -4                       34.868421052631504       0.015852232483952563
-4                        -4                       35.526315789473585       0.014240266621289683
1.7151479891718528        -4                       35.63157894736837        0.015368082300693675
0.5712953107643495        -4                       35.163157894736784       0.011290198500261113
-0.5727219837577797       -4                       34.710526315789416       0.012570633875882595
2.85812271496801          -4                       36.184210526315695       0.014947447127323751
4                         -4                       36.842105263157805       0.010316766324895253
0.5712953107643506        -4                       36.478947368421          0.011232068565300539
2.858122714968012         -4                       37.4999999999999         0.009753668677706958
4                         -4                       38.15789473684202        0.011100619633550515
1.715147989171852         -4                       36.94736842105255        0.012075348784698188
-1.7162454299360344       -4                       35.52631578947359        0.014068483925355021
-0.5727219837577779       -4                       36.026315789473614       0.011748879627749292
-4                        -4                       36.842105263157805       0.015291973544642859
-2.85812271496801         -4                       36.184210526315695       0.015427745165797473
-2.8581227149680126       -4                       37.499999999999915       0.014271396806889054
-1.7162454299360235       -4                       36.84210526315781        0.01468725076679557
-4                        -4                       38.15789473684202        0.015826037811680033
-0.5727219837577745       -4                       37.34210526315784        0.010916729934477995
0.5712953107643506        -4                       37.794736842105216       0.011190340095683772
2.85812271496801          -4                       38.81578947368414        0.013609179815490419
4                         -4                       39.47368421052623        0.012340570235522695
1.7151479891718493        -4                       38.26315789473678        0.012321481648237403
-1.7162454299360197       -4                       38.157894736842024       0.012527960946221476
-4                        -4                       39.47368421052623        0.015677630438817813
-2.8581227149680073       -4                       38.815789473684134       0.01154418161551028
-0.5727219837577779       -4                       38.657894736842046       0.014679438701857181
1.7151479891718484        -4                       39.57894736842099        0.014298957050782423
-2.8581227149680193       -4                       40.13157894736834        0.011398391159638853
-3.999999999999999        -3.999999999999999       40.78947368421043        0.013730295396449356
0.5712953107643486        -4                       39.11052631578943        0.013896317655610798
-1.7162454299360288       -4                       39.47368421052625        0.011856736798918752
-0.5727219837577806       -4                       39.97368421052625        0.012020792654122356
2.8581227149680153        -4                       40.13157894736833        0.011586366633949305
3.999999999999999         -3.999999999999999       40.78947368421043        0.008848711956524232
2.858122714968009         -4                       41.44736842105253        0.0119459240264867
4                         -4                       42.10526315789464        0.015168269839745443
1.715147989171852         -4                       40.894736842105196       0.01124098399899776
0.5712953107643477        -4                       40.42631578947362        0.007254607203133323
-1.7162454299360317       -4                       40.78947368421044        0.0082246460214593
-0.5727219837577788       -4                       41.289473684210456       0.007505517065008452
-4                        -4                       42.10526315789464        0.016167006957544493
-2.8581227149680126       -4                       41.447368421052545       0.012445283139973623
-2.8581227149680153       -4                       42.76315789473675        0.012256616269339216
2.8581227149680153        -4                       42.76315789473675        0.011796644171958153
4                         -4                       43.42105263157885        0.010928332918321413
1.7151479891718524        -4                       42.2105263157894         0.011846971165228426
-4                        -4                       43.42105263157885        0.011127455508364545
-1.716245429936027        -4                       42.10526315789465        0.009037599063898033
0.5712953107643488        -4                       41.74210526315784        0.006251575663063964
-0.5727219837577788       -4                       42.605263157894655       0.007635530284480112
0.5712953107643495        -4                       43.05789473684205        0.006908677781231071
-2.8581227149680126       -4                       44.07894736842095        0.006880282092856523
-1.7162454299360297       -4                       43.421052631578874       0.008310030657827637
-4                        -4                       44.736842105263044       0.010706924950882704
2.8581227149680117        -4                       44.07894736842094        0.007797541195513349
4                         -4                       44.736842105263044       0.010302863219861678
1.7151479891718506        -4                       43.52631578947361        0.009593192887372641
1.715147989171852         -4                       44.84210526315782        0.009233310797009227
-0.5727219837577797       -4                       43.921052631578874       0.008421662257781985
0.5712953107643488        -4                       44.37368421052624        0.0069204674097175295
-0.5727219837577797       -4                       45.23684210526309        0.008681242131177843
-4                        -4                       46.05263157894726        0.012772787382245701
-2.8581227149680126       -4                       45.394736842105154       0.008886115661662997
-1.7162454299360288       -4                       44.736842105263065       0.007438686180918297
2.8581227149680117        -4                       45.39473684210515        0.00920519953365718
4                         -4                       46.05263157894726        0.0048952551399959595
2.8581227149680153        -4                       46.71052631578936        0.0076001049719172445
3.999999999999999         -3.999999999999999       47.368421052631476       0.004191489151518253
1.7151479891718522        -4                       46.15789473684201        0.013514199416939918
0.5712953107643504        -4                       45.68947368421045        0.01056623190625411
-1.7162454299360308       -4                       46.05263157894728        0.00768132107106987
-3.999999999999999        -3.999999999999999       47.368421052631476       0.012330675188951508
-2.8581227149680153       -4                       46.71052631578936        0.011274758703578332
-0.572721983757777        -4                       46.55263157894728        0.005514532534304898
-1.7162454299360244       -4                       47.36842105263148        0.00658854120106945
-2.8581227149680135       -4                       48.02631578947357        0.00828576626803742
-4                        -4                       48.68421052631568        0.00875290048939077
2.85812271496801          -4                       48.02631578947359        0.006846681192525608
4                         -4                       48.68421052631568        0.002643186252727149
1.715147989171851         -4                       47.47368421052622        0.00961071162479124
0.5712953107643504        -4                       47.00526315789465        0.008258259720921072
-0.5727219837577753       -4                       47.86842105263149        0.007118081786253109
-1.7162454299360244       -4                       48.68421052631569        0.0053604420699709
-2.85812271496801         -4                       49.34210526315779        0.005860672339041803
-4                        -4                       49.99999999999989        0.007011729582969019
2.85812271496801          -4                       49.34210526315779        0.0028051601340597157
4                         -4                       49.99999999999989        0.006054255208785022
1.7151479891718493        -4                       48.78947368421043        0.006398398214975814
-0.5727219837577753       -4                       49.18421052631572        0.006614635141547156