% Model:              Cav_Hex_Unif_flux_v5.1.2 - Wall Distn.mph
% Version:            COMSOL 5.5.0.359
% Date:               May 16 2022, 16:44
% Dimension:          3
% Nodes:              2456
% Expressions:        1
% Description:        Surface
% x                       y                        z                        Color
-4                        -3.1091887578916704      0.9141057645898676       0.020965176305337535
-3.999999999999999        -3.999999999999999       1.3157894736842068       0.019871552667780037
-4                        -4                       0                        0.01657371764232895
-4                        -2.6666666666666665      0                        0.022934255366589745
-4                        3.0758370637793435       0.8833550143143354       0.014132406355095573
-4                        2.666666666666668        0                        0.014819619541380802
-4                        4                        0                        0.01422632016666573
-3.999999999999999        3.999999999999999        1.3157894736842068       0.014765347131754989
-4                        7.91033905045424E-16     0                        0.021938200838566773
-4                        -0.5689913898402228      1.1116586170553335       0.02366437509373576
-4                        -1.3333333333333326      0                        0.02501906532471956
-4                        0.6666666666666679       1.1471949848797847       0.02038356565939057
-4                        1.9773752169223693       1.0299452043621926       0.01911417803062879
-3.999999999999999        1.3333333333333344       0                        0.02165392606905209
-4                        -2.960349857095676       2.0112046564970676       0.02185564266243005
-3.999999999999999        -3.999999999999999       2.6315789473684137       0.019776284806052227
-4                        -1.9189272656960084      1.2435346927680335       0.02602274343567274
-4                        -2.8581227149680184      3.289473684210531        0.02179916035132351
-3.999999999999999        -3.999999999999999       3.947368421052621        0.020238117722129186
-3.999999999999999        3.999999999999999        2.6315789473684137       0.016262202664921985
-4                        2.7487192587958154       2.0653144274501267       0.017594719855367542
-4                        1.3730283122923892       2.0838067995287646       0.020420710874051614
-4                        -1.837439504065812       2.6758917200519377       0.023200507868047112
-4                        0.12648028973971837      2.1669050643517322       0.017646293624368165
-4                        -0.9548346964183825      2.1123169603324725       0.02225737179347912
-4                        2.8599075272384544       3.355731830803621        0.02015421667454127
-3.999999999999999        3.999999999999999        3.947368421052621        0.020355508918447982
-4                        2.8581227149680113       4.605263157894724        0.02420017667896877
-3.999999999999999        3.999999999999999        5.263157894736827        0.019661458800096423
-4                        -1.7424936699304212      4.027479320740534        0.02454550293032644
-4                        -2.8581227149680117      4.605263157894745        0.022012928031574817
-3.999999999999999        -3.999999999999999       5.263157894736827        0.021724902176668923
-4                        0.8619532281962199       3.1579922234977635       0.022175417626120856
-4                        1.7812792745967423       3.966579199080833        0.020809886318597624
-4                        1.8573657331396822       2.9352509224546353       0.018040866134405757
-4                        -0.5750990887494896      3.36346599852021         0.022951489433788625
-4                        0.611007966395122        4.43051753599315         0.023363706833996592
-4                        1.71624542993602         5.263157894736848        0.022949117332717997
-4                        2.8581227149680126       5.92105263157896         0.019695667993824616
-4                        4                        6.578947368421037        0.015655216641553813
-4                        2.8581227149680126       7.236842105263152        0.018708595410508667
-3.999999999999999        3.999999999999999        7.894736842105244        0.017094566105840172
-3.999999999999999        -3.999999999999999       7.894736842105244        0.01753542574373752
-4                        -4                       6.578947368421037        0.021074982746404722
-4                        -2.8586275888115775      7.250002914604715        0.0202701931675748
-4                        -0.5717463669678458      4.880753105016545        0.026034907698672515
-4                        -1.7153511999615885      5.352932535046618        0.022176171132056444
-4                        -2.8581227149680135      5.921052631578939        0.021085924585717994
-4                        0.5790826768682945       5.762404755957784        0.024810521167248276
-4                        1.7162454299360317       6.578947368421084        0.022527738064788378
-4                        -1.7149989508427785      6.699172966367439        0.022070036507497365
-4                        -0.5716245429936047      6.184210526315825        0.025135652959814153
-4                        -0.5710584479391533      7.53404758275108         0.02205186211647701
-4                        0.5737820992761975       7.078821845291228        0.02132373590854662
-4                        -2.8581227149680117      8.552631578947343        0.022612834866000176
-4                        -4                       9.210526315789451        0.01565711610608007
-4                        1.7162454299360226       7.894736842105275        0.023064073307648456
-4                        4                        9.210526315789451        0.014980822182151153
-4                        2.8581227149680064       8.552631578947366        0.020302167626045493
-4                        2.858122714968013        9.86842105263156         0.019694304409364136
-4                        4                        10.52631578947366        0.01579443590992378
-4                        -1.7151479891718506      8.000000000000005        0.024477245238714192
-4                        -1.7151479891718517      9.315789473684221        0.02791535711024257
-4                        0.5728986696775165       8.394715921583607        0.022949247318234892
-4                        -0.5712599735804016      8.84736423694834         0.025132498151371942
-4                        1.7162454299360288       9.210526315789448        0.024927746096948436
-4                        -2.858122714968012       9.868421052631557        0.0202054106700244
-4                        -4                       10.52631578947366        0.016225392347794257
-4                        2.8581227149680193       11.184210526315754       0.018374645458302464
-3.999999999999999        3.999999999999999        11.842105263157865       0.016874191610093504
-4                        1.716245429936035        10.52631578947365        0.02326057523549377
-4                        0.5727514314110698       9.710522829035872        0.02423392534587346
-4                        -1.7151479891718528      10.631578947368435       0.02316507003770363
-4                        -0.5712894212336918      10.163157197386163       0.021516426118511223
-3.999999999999999        -3.999999999999999       11.842105263157865       0.018803190830848755
-4                        -2.8581227149680126      12.499999999999966       0.019929839739415072
-4                        -4                       13.15789473684207        0.017314838645896828
-4                        -2.8581227149680184      11.184210526315754       0.020537559357687755
-4                        -0.5712943291759078      11.478947252195937       0.020427573156968328
-4                        0.5727268916999932       11.026315208348091       0.02068241869918239
-4                        1.7162454299360288       11.842105263157855       0.019697308783996635
-4                        2.8581227149680126       12.499999999999966       0.018420139201569995
-4                        4                        13.15789473684207        0.013027130505831134
-4                        -1.715147989171854       11.947368421052639       0.023247864709783406
-4                        -0.5712951471662768      12.794736822734421       0.021133368582172157
-4                        -2.8581227149680117      13.815789473684179       0.01987311485776805
-3.999999999999999        -3.999999999999999       14.47368421052628        0.018174105594581314
-4                        -1.715147989171851       13.263157894736823       0.022974587031056745
-4                        0.5727228017481458       12.342105166303629       0.01952855815078734
-4                        1.7162454299360252       13.15789473684209        0.020565294531702773
-4                        2.8581227149680117       13.81578947368418        0.01629130604041934
-3.999999999999999        3.999999999999999        14.47368421052628        0.01687416786118964
-4                        -0.5712952834980038      14.110526312561012       0.0219224976288027
-4                        0.5727221200895061       13.657894720699703       0.01939927404021857
-4                        -2.8581227149680153      15.131578947368386       0.016967605175253385
-4                        -4                       15.789473684210485       0.015035256875967526
-4                        -1.7151479891718493      14.578947368421048       0.020676820665041836
-4                        2.8581227149680153       15.131578947368386       0.0165811748709063
-4                        4                        15.789473684210485       0.020241570567985697
-4                        1.7162454299360261       14.473684210526304       0.017760834089523933
-4                        0.5727220064797329       14.973684207835925       0.02028785667654545
-4                        1.7162454299360235       15.789473684210499       0.020920938385282445
-4                        -1.715147989171852       15.89473684210525        0.0182888925834427
-4                        -0.5712953062199579      15.426315788935607       0.02158487814976338
-4                        -2.8581227149680126      16.447368421052587       0.01550348144573055
-4                        -4                       17.10526315789469        0.012687797717497395
-4                        2.8581227149680126       16.447368421052598       0.01779497439557345
-4                        4                        17.10526315789469        0.0145174208316352
-4                        -2.8581227149680135      17.763157894736793       0.015301342454227778
-3.999999999999999        -3.999999999999999       18.4210526315789         0.012064230801984523
-4                        0.5727219875447709       16.28947368376211        0.022851789657345304
-4                        -1.715147989171852       17.210526315789444       0.01718528184086435
-4                        -0.5712953100069511      16.74210526306823        0.018888970653545997
-4                        1.7162454299360308       17.10526315789471        0.023643219075713175
-3.999999999999999        3.999999999999999        18.4210526315789         0.011225948632266293
-4                        2.8581227149680117       17.763157894736793       0.013772597597635673
-4                        -2.8581227149680117      19.078947368421005       0.01453273200030778
-3.999999999999999        -3.999999999999999       19.73684210526311        0.013013174065652338
-3.999999999999999        3.999999999999999        19.73684210526311        0.01231687568421866
-4                        2.8581227149680117       19.078947368421005       0.013627142040474651
-4                        -2.8581227149680117      20.394736842105228       0.014808812825196105
-4                        -4                       21.05263157894732        0.01309495469156819
-4                        -1.715147989171851       18.526315789473657       0.015916986343650127
-4                        0.5727219843889433       17.605263157820005       0.02083250139520833
-4                        -0.5712953106381171      18.05789473682715        0.014747127089992701
-4                        0.5727219838629702       18.921052631566475       0.01666133036717959
-4                        1.7162454299360252       18.421052631578917       0.019127772677597316
-4                        2.858122714968013        20.39473684210523        0.014496634679685058
-4                        4                        21.05263157894732        0.009578740925071239
-4                        -1.7151479891718506      19.84210526315788        0.01651459158112835
-4                        -0.5712953107433112      19.373684210523813       0.01832976095517951
-4                        1.716245429936022        19.73684210526312        0.017636870071685896
-4                        0.5727219837753098       20.236842105261054       0.020263996030559662
-4                        -1.7151479891718506      21.157894736842085       0.017530650722455614
-4                        -2.8581227149680153      21.710526315789437       0.012471400994878062
-4                        -4                       22.368421052631522       0.011736006698890978
-4                        2.8581227149680153       21.710526315789437       0.013858754423492234
-4                        -0.5712953107608423      20.689473684210107       0.020982645678142692
-4                        1.716245429936027        21.052631578947334       0.01806002418192737
-4                        -0.571295310763765       22.00526315789466        0.018586501149627076
-4                        4                        22.368421052631522       0.012082864198724466
-4                        0.5727219837607018       21.552631578947          0.01692825553399842
-4                        1.716245429936033        22.368421052631536       0.016379550300113444
-4                        -1.715147989171851       22.4736842105263         0.018025517405427027
-4                        -2.8581227149680117      23.026315789473625       0.013593199607834922
-4                        -4                       23.68421052631573        0.010389874489501558
-4                        -1.7151479891718524      23.789473684210506       0.017492839084634535
-4                        -0.5712953107642524      23.32105263157893        0.01717487055341569
-4                        0.5727219837582656       22.868421052631493       0.0157112122359253
-4                        4                        23.68421052631573        0.009796730911909956
-4                        2.8581227149680126       23.026315789473628       0.01471054879282438
-4                        2.858122714968013        24.342105263157844       0.013186920468184494
-4                        4                        24.999999999999943       0.01278252929666465
-4                        1.716245429936025        23.68421052631574        0.016298025200034552
-4                        -2.8581227149680117      24.34210526315784        0.012150402335223192
-4                        -4                       24.999999999999943       0.009765489915659417
-4                        -2.8581227149680153      25.657894736842056       0.012471035707068744
-4                        -4                       26.31578947368415        0.009419972195610339
-4                        -1.715147989171851       25.10526315789472        0.014054835860892621
-4                        -0.5712953107643342      24.636842105263156       0.01534337309627592
-4                        0.5727219837578597       24.184210526315763       0.015219670245118964
-4                        1.716245429936027        24.999999999999957       0.014604617037934678
-4                        0.5727219837577895       25.49999999999998        0.014577357290907589
-4                        1.716245429936026        26.31578947368415        0.012616675454025153
-4                        2.8581227149680153       25.657894736842056       0.012893619341666942
-4                        2.85812271496801         26.97368421052626        0.00967781864261136
-4                        4                        26.31578947368415        0.009469171610493798
-4                        -0.5712953107643468      25.95263157894734        0.01371704047208828
-4                        -1.7151479891718513      26.421052631578913       0.013991053933200099
-4                        -2.858122714968009       26.97368421052626        0.012522228095670893
-4                        -4                       27.631578947368357       0.0098962983830752
-4                        4                        27.631578947368357       0.006122084874357714
-4                        0.5727219837577806       26.81578947368418        0.012789706778873736
-4                        1.7162454299360252       27.631578947368386       0.010304340929686094
-4                        2.8581227149680153       28.289473684210463       0.0088189704826906
-4                        -0.5712953107643486      27.268421052631552       0.016410227256436916
-4                        -1.715147989171851       27.736842105263104       0.014328465980466049
-4                        -2.8581227149680153      28.289473684210463       0.009791617508258297
-4                        -4                       28.947368421052563       0.006187710621508329
-4                        -1.7151479891718535      29.05263157894732        0.012517504007185938
-4                        4                        28.947368421052563       0.008072176846289044
-4                        2.8581227149680153       29.60526315789467        0.010773512222535612
-4                        -0.5712953107643501      28.584210526315744       0.0160922801344273
-4                        0.5727219837577806       28.131578947368386       0.015559585980649852
-4                        1.716245429936035        28.947368421052577       0.011370489776070367
-4                        0.5727219837577788       29.447368421052587       0.01330092535067713
-4                        -0.5712953107643506      29.899999999999952       0.01386556420300869
-4                        -2.8581227149680153      29.60526315789467        0.009333357368702814
-4                        -4                       30.263157894736768       0.006272281698554211
-4                        -2.8581227149680153      30.92105263157887        0.00899333650129693
-4                        -4                       31.578947368420977       0.009030187022436137
-4                        -1.7151479891718546      30.368421052631533       0.014283672333699564
-4                        4                        30.263157894736768       0.010141418949570942
-4                        1.7162454299360235       30.26315789473677        0.009261209875957422
-4                        0.572721983757777        30.763157894736793       0.009844396913030391
-4                        2.8581227149680126       30.92105263157888        0.010556490847989273
-4                        4                        31.578947368420977       0.008789821104011138
-4                        -1.7151479891718528      31.684210526315738       0.01172468007122514
-4                        -2.8581227149680157      32.236842105263065       0.009925893385774542
-4                        -4                       32.89473684210518        0.00931012404927153
-4                        -0.5712953107643519      31.215789473684165       0.011948601075140446
-4                        1.7162454299360297       31.578947368420998       0.01047633114026266
-4                        -0.5712953107643504      32.53157894736838        0.010025865614291028
-4                        0.572721983757777        32.078947368421005       0.010568161459354103
-4                        4                        32.89473684210518        0.00802662213960764
-4                        2.8581227149680153       32.23684210526307        0.009017470402608278
-4                        1.7162454299360261       32.894736842105196       0.00888592379046504
-4                        -1.7151479891718517      32.99999999999994        0.008467295153886107
-4                        -2.858122714968009       33.55263157894728        0.00800994828156358
-3.999999999999999        -3.999999999999999       34.210526315789394       0.008164405404952052
-4                        0.5727219837577815       33.394736842105225       0.009011325404794527
-3.999999999999999        3.999999999999999        34.210526315789394       0.006764980350724987
-4                        2.858122714968011        33.55263157894729        0.00796396828504999
-4                        1.7162454299360288       34.210526315789416       0.009168517072390714
-4                        -2.8581227149680215      34.868421052631504       0.007719980532877066
-4                        -4                       35.526315789473585       0.00743371234573443
-4                        -2.85812271496801        36.184210526315695       0.005814396870316572
-4                        -4                       36.842105263157805       0.004898294413476838
-4                        -1.7151479891718506      34.31578947368414        0.00811485952915116
-4                        -0.5712953107643486      33.84736842105258        0.008541691768912568
-4                        -0.5712953107643501      35.163157894736784       0.008732720247257388
-4                        -1.7151479891718528      35.63157894736835        0.008183224193908899
-4                        0.5727219837577806       34.710526315789416       0.010250353293145059
-4                        4                        35.526315789473585       0.006068424963752614
-4                        2.8581227149680215       34.868421052631504       0.0059499597827471695
-4                        1.7162454299360368       35.526315789473585       0.007952880187583665
-4                        4                        36.842105263157805       0.0069755844602473445
-4                        2.85812271496801         36.18421052631569        0.004457144173892625
-4                        1.7162454299360181       36.84210526315781        0.0054552270067921215
-4                        0.5727219837577753       36.02631578947361        0.007251097897598009
-4                        -0.5712953107643521      36.47894736842099        0.0064175670780343445
-4                        -1.7151479891718535      36.94736842105255        0.00567539693777016
-4                        -2.8581227149680135      37.49999999999992        0.0033689003790696357
-4                        -4                       38.15789473684202        0.0055187791018143926
-4                        -2.85812271496801        38.81578947368412        0.005636093730734284
-4                        -4                       39.47368421052623        0.00759362820357837
-4                        4                        38.15789473684202        0.004422732215531662
-4                        4                        39.47368421052623        0.0034450474135768808
-4                        2.8581227149680073       38.815789473684134       0.004515576046408456
-4                        2.8581227149680126       37.499999999999915       0.00530194529458718
-4                        1.7162454299360173       38.157894736842024       0.005771634802430386
-4                        -1.7151479891718509      38.26315789473677        0.004987087471782451
-4                        0.5727219837577717       37.34210526315783        0.00513308413037821
-4                        0.5727219837577762       38.657894736842046       0.006183143448885796
-4                        -0.5712953107643521      37.7947368421052         0.004616679285924219
-4                        -0.5712953107643504      39.11052631578941        0.0059362085211794036
-4                        1.7162454299360288       39.47368421052625        0.005748593233292153
-4                        2.8581227149680193       40.13157894736834        0.005099402558643501
-4                        1.7162454299360317       40.78947368421044        0.004016483261284716
-3.999999999999999        3.999999999999999        40.78947368421043        0.004349023020722407
-4                        -2.8581227149680193      40.13157894736835        0.005698829843389483
-3.999999999999999        -3.999999999999999       40.78947368421043        0.004709845052170473
-4                        -1.7151479891718522      39.57894736842097        0.007599183504268675
-4                        -1.715147989171852       40.89473684210518        0.006166633159518171
-4                        -0.5712953107643495      40.42631578947362        0.0057650594070810255
-4                        0.5727219837577788       39.97368421052625        0.005182497588471555
-4                        2.8581227149680126       41.447368421052545       0.004751743082624446
-4                        -2.8581227149680117      41.44736842105254        0.004903216981957163
-4                        -4                       42.10526315789464        0.005304513298553827
-4                        1.716245429936027        42.10526315789465        0.004884722278898743
-4                        0.5727219837577788       41.289473684210456       0.004044906029529814
-4                        -0.5712953107643495      41.742105263157825       0.004938532318602565
-4                        4                        42.10526315789464        0.0038578873058796406
-4                        -1.7151479891718524      42.2105263157894         0.00450238975994752
-4                        2.8581227149680153       42.76315789473675        0.0057132389478223205
-4                        4                        43.42105263157885        0.00531467181974291
-4                        2.8581227149680126       44.07894736842095        0.005465478913438167
-4                        -2.8581227149680153      42.76315789473675        0.005003159644004562
-4                        -4                       43.42105263157885        0.004242375802602025
-4                        1.7162454299360297       43.421052631578874       0.004387663946445337
-4                        0.5727219837577797       42.605263157894655       0.004679720906918192
-4                        -0.5712953107643488      43.05789473684203        0.005325000332613156
-4                        4                        44.736842105263044       0.002706028222792536
-4                        -2.8581227149680117      44.07894736842094        0.005415271695304928
-4                        -4                       44.736842105263044       0.004743013200178209
-4                        -1.715147989171851       43.526315789473614       0.004984656936882273
-4                        1.7162454299360288       44.736842105263065       0.004284798898366083
-4                        2.8581227149680126       45.394736842105154       0.004229827172496613
-4                        4                        46.05263157894726        0.004792602920478317
-4                        0.5727219837577806       43.921052631578874       0.0033637827242265985
-4                        -0.5712953107643486      44.37368421052624        0.0026740633602984833
-4                        -2.8581227149680117      45.39473684210515        0.003833814396215941
-4                        -4                       46.05263157894726        0.005475980229545686
-4                        -1.7151479891718517      44.842105263157805       0.003208948233917515
-4                        -1.7151479891718522      46.157894736841996       0.002257965158653373
-4                        -0.5712953107643501      45.689473684210434       0.0023177648115767072
-4                        0.5727219837577788       45.236842105263065       0.0021314647007019192
-4                        1.7162454299360297       46.052631578947256       0.0026052735199829473
-4                        2.8581227149680153       46.71052631578936        0.004810382837751056
-3.999999999999999        3.999999999999999        47.368421052631476       0.004915216987795977
-4                        0.5727219837577762       46.55263157894728        0.003283590655749433
-4                        -0.5712953107643512      47.00526315789466        0.0033267068930134167
-4                        -2.8581227149680153      46.71052631578936        0.0035686226279190397
-3.999999999999999        -3.999999999999999       47.368421052631476       0.004084128080883504
-4                        -2.85812271496801        48.02631578947359        0.002086730731725121
-4                        -4                       48.68421052631568        0.002268825855464261
-4                        -1.7151479891718524      47.473684210526216       0.002459983776272523
-4                        1.7162454299360244       47.36842105263148        0.004205483481635411
-4                        2.8581227149680126       48.02631578947357        0.003444323729772445
-4                        4                        48.68421052631568        0.0032593432559445724
-4                        -0.5712953107643512      48.321052631578866       0.003184299974059363
-4                        1.7162454299360235       48.68421052631569        0.0025077509434998473
-4                        0.5727219837577753       47.86842105263149        0.0036785212704060926
-4                        -2.8581227149680126      49.3421052631578         0.0024384630086859162
-4                        -1.7151479891718504      48.78947368421043        0.0027268320271586696
-4                        -4                       49.99999999999989        0.0010866182134901877