% Model:              Cav_Hex_Unif_flux_v5.1.2 - Wall Distn.mph
% Version:            COMSOL 5.5.0.359
% Date:               May 16 2022, 16:44
% Dimension:          3
% Nodes:              2456
% Expressions:        1
% Description:        Surface
% x                       y                        z                        Color
-4                        -3.1091887578916704      0.9141057645898676       0.04239789494984094
-3.999999999999999        -3.999999999999999       1.3157894736842068       0.038446067615036834
-4                        -4                       0                        0.03171351322202022
-4                        -2.6666666666666665      0                        0.048698333491235445
-4                        3.0758370637793435       0.8833550143143354       0.029080057091580125
-4                        2.666666666666668        0                        0.030637654122306193
-4                        4                        0                        0.028891439857069306
-3.999999999999999        3.999999999999999        1.3157894736842068       0.030020901567469834
-4                        7.91033905045424E-16     0                        0.04587757650254018
-4                        -0.5689913898402228      1.1116586170553335       0.049456766153053465
-4                        -1.3333333333333326      0                        0.05314826056966677
-4                        0.6666666666666679       1.1471949848797847       0.042697986519127734
-4                        1.9773752169223693       1.0299452043621926       0.04025899895601029
-3.999999999999999        1.3333333333333344       0                        0.04556025459299662
-4                        -2.960349857095676       2.0112046564970676       0.044496040578396234
-3.999999999999999        -3.999999999999999       2.6315789473684137       0.040605769776242695
-4                        -1.9189272656960084      1.2435346927680335       0.054287174041651766
-4                        -2.8581227149680184      3.289473684210531        0.044813906207779176
-3.999999999999999        -3.999999999999999       3.947368421052621        0.04125130067279886
-3.999999999999999        3.999999999999999        2.6315789473684137       0.031981241922945644
-4                        2.7487192587958154       2.0653144274501267       0.03566783179853047
-4                        1.3730283122923892       2.0838067995287646       0.04163883128258367
-4                        -1.837439504065812       2.6758917200519377       0.04813336251217091
-4                        0.12648028973971837      2.1669050643517322       0.03589737806221462
-4                        -0.9548346964183825      2.1123169603324725       0.04621279956800817
-4                        2.8599075272384544       3.355731830803621        0.04011737103194739
-3.999999999999999        3.999999999999999        3.947368421052621        0.03831802182891023
-4                        2.8581227149680113       4.605263157894724        0.047695199203885215
-3.999999999999999        3.999999999999999        5.263157894736827        0.038529833115064
-4                        -1.7424936699304212      4.027479320740534        0.050132667473604446
-4                        -2.8581227149680117      4.605263157894745        0.044466855761941315
-3.999999999999999        -3.999999999999999       5.263157894736827        0.04221167696190354
-4                        0.8619532281962199       3.1579922234977635       0.04590207392184715
-4                        1.7812792745967423       3.966579199080833        0.04295227030908169
-4                        1.8573657331396822       2.9352509224546353       0.0376829439323986
-4                        -0.5750990887494896      3.36346599852021         0.04713617650277182
-4                        0.611007966395122        4.43051753599315         0.04765588904217127
-4                        1.71624542993602         5.263157894736848        0.04565326415101991
-4                        2.8581227149680126       5.92105263157896         0.03804420048658414
-4                        4                        6.578947368421037        0.028323431639326175
-4                        2.8581227149680126       7.236842105263152        0.0351933738178062
-3.999999999999999        3.999999999999999        7.894736842105244        0.032688939326286
-3.999999999999999        -3.999999999999999       7.894736842105244        0.03324456417780023
-4                        -4                       6.578947368421037        0.03980313768611734
-4                        -2.8586275888115775      7.250002914604715        0.03866250287250417
-4                        -0.5717463669678458      4.880753105016545        0.05169614671590298
-4                        -1.7153511999615885      5.352932535046618        0.04367372821362542
-4                        -2.8581227149680135      5.921052631578939        0.039731340552859686
-4                        0.5790826768682945       5.762404755957784        0.04821998753359241
-4                        1.7162454299360317       6.578947368421084        0.044336557820704954
-4                        -1.7149989508427785      6.699172966367439        0.041603779993208245
-4                        -0.5716245429936047      6.184210526315825        0.049459040622414
-4                        -0.5710584479391533      7.53404758275108         0.04063157296685655
-4                        0.5737820992761975       7.078821845291228        0.039675588233950156
-4                        -2.8581227149680117      8.552631578947343        0.04544566654360325
-4                        -4                       9.210526315789451        0.03156066764287634
-4                        1.7162454299360226       7.894736842105275        0.04417171164299947
-4                        4                        9.210526315789451        0.029060313752275736
-4                        2.8581227149680064       8.552631578947366        0.03911792463443762
-4                        2.858122714968013        9.86842105263156         0.0379516164580864
-4                        4                        10.52631578947366        0.02885581755928877
-4                        -1.7151479891718506      8.000000000000005        0.047678603778515544
-4                        -1.7151479891718517      9.315789473684221        0.05546130185029499
-4                        0.5728986696775165       8.394715921583607        0.041812429236295
-4                        -0.5712599735804016      8.84736423694834         0.04769927701754656
-4                        1.7162454299360288       9.210526315789448        0.0466923820411197
-4                        -2.858122714968012       9.868421052631557        0.041002940778403246
-4                        -4                       10.52631578947366        0.03146795628742483
-4                        2.8581227149680193       11.184210526315754       0.0332033895214949
-3.999999999999999        3.999999999999999        11.842105263157865       0.0284811218541539
-4                        1.716245429936035        10.52631578947365        0.04439853830726161
-4                        0.5727514314110698       9.710522829035872        0.04548147660745913
-4                        -1.7151479891718528      10.631578947368435       0.04731334586649135
-4                        -0.5712894212336918      10.163157197386163       0.041195986714544754
-3.999999999999999        -3.999999999999999       11.842105263157865       0.03583288350272525
-4                        -2.8581227149680126      12.499999999999966       0.03882822510048251
-4                        -4                       13.15789473684207        0.032106569207996705
-4                        -2.8581227149680184      11.184210526315754       0.04039519939313189
-4                        -0.5712943291759078      11.478947252195937       0.03893831553229362
-4                        0.5727268916999932       11.026315208348091       0.03858476302070744
-4                        1.7162454299360288       11.842105263157855       0.03699289379829026
-4                        2.8581227149680126       12.499999999999966       0.03337767064669433
-4                        4                        13.15789473684207        0.02337692141007808
-4                        -1.715147989171854       11.947368421052639       0.04652726395062071
-4                        -0.5712951471662768      12.794736822734421       0.03874882822483744
-4                        -2.8581227149680117      13.815789473684179       0.03752458551069223
-3.999999999999999        -3.999999999999999       14.47368421052628        0.03525900667099006
-4                        -1.715147989171851       13.263157894736823       0.0437095913898505
-4                        0.5727228017481458       12.342105166303629       0.03528101926167464
-4                        1.7162454299360252       13.15789473684209        0.03982569640365472
-4                        2.8581227149680117       13.81578947368418        0.030144564945424557
-3.999999999999999        3.999999999999999        14.47368421052628        0.03136390494078618
-4                        -0.5712952834980038      14.110526312561012       0.042054095059900376
-4                        0.5727221200895061       13.657894720699703       0.03829042204709962
-4                        -2.8581227149680153      15.131578947368386       0.03326363074906331
-4                        -4                       15.789473684210485       0.026142450288508267
-4                        -1.7151479891718493      14.578947368421048       0.03912576185868006
-4                        2.8581227149680153       15.131578947368386       0.030924237470184555
-4                        4                        15.789473684210485       0.039193423848725185
-4                        1.7162454299360261       14.473684210526304       0.03285362439571649
-4                        0.5727220064797329       14.973684207835925       0.03824482887044354
-4                        1.7162454299360235       15.789473684210499       0.038743063501799915
-4                        -1.715147989171852       15.89473684210525        0.034321959267261316
-4                        -0.5712953062199579      15.426315788935607       0.039244699910367414
-4                        -2.8581227149680126      16.447368421052587       0.02949739082858052
-4                        -4                       17.10526315789469        0.022411164036263042
-4                        2.8581227149680126       16.447368421052598       0.034576265724826125
-4                        4                        17.10526315789469        0.02692457100302197
-4                        -2.8581227149680135      17.763157894736793       0.028495157505268497
-3.999999999999999        -3.999999999999999       18.4210526315789         0.02089802194865741
-4                        0.5727219875447709       16.28947368376211        0.042962542512684915
-4                        -1.715147989171852       17.210526315789444       0.03209318493054241
-4                        -0.5712953100069511      16.74210526306823        0.03489697100638033
-4                        1.7162454299360308       17.10526315789471        0.04393421295270211
-3.999999999999999        3.999999999999999        18.4210526315789         0.018304995175613684
-4                        2.8581227149680117       17.763157894736793       0.02274413318198089
-4                        -2.8581227149680117      19.078947368421005       0.025881654668782655
-3.999999999999999        -3.999999999999999       19.73684210526311        0.024043777381608636
-3.999999999999999        3.999999999999999        19.73684210526311        0.02341091474137147
-4                        2.8581227149680117       19.078947368421005       0.024318938672412513
-4                        -2.8581227149680117      20.394736842105228       0.02706605225980045
-4                        -4                       21.05263157894732        0.023925871375071742
-4                        -1.715147989171851       18.526315789473657       0.03013520843775148
-4                        0.5727219843889433       17.605263157820005       0.04012444441664698
-4                        -0.5712953106381171      18.05789473682715        0.028875250914057998
-4                        0.5727219838629702       18.921052631566475       0.032250272493556165
-4                        1.7162454299360252       18.421052631578917       0.03413173968095808
-4                        2.858122714968013        20.39473684210523        0.02707830966541273
-4                        4                        21.05263157894732        0.018289526450854535
-4                        -1.7151479891718506      19.84210526315788        0.03179826936389668
-4                        -0.5712953107433112      19.373684210523813       0.03633400635665646
-4                        1.716245429936022        19.73684210526312        0.03425422009702273
-4                        0.5727219837753098       20.236842105261054       0.03918092902645287
-4                        -1.7151479891718506      21.157894736842085       0.03310557513391999
-4                        -2.8581227149680153      21.710526315789437       0.02175942072398286
-4                        -4                       22.368421052631522       0.021419336314628747
-4                        2.8581227149680153       21.710526315789437       0.02412901039112353
-4                        -0.5712953107608423      20.689473684210107       0.04024446466318482
-4                        1.716245429936027        21.052631578947334       0.03379916798071025
-4                        -0.571295310763765       22.00526315789466        0.0357062375145776
-4                        4                        22.368421052631522       0.02268544187590057
-4                        0.5727219837607018       21.552631578947          0.03185289920799296
-4                        1.716245429936033        22.368421052631536       0.031452702664791145
-4                        -1.715147989171851       22.4736842105263         0.03362845154415215
-4                        -2.8581227149680117      23.026315789473625       0.02489612063606446
-4                        -4                       23.68421052631573        0.017217018182531497
-4                        -1.7151479891718524      23.789473684210506       0.03236317079657123
-4                        -0.5712953107642524      23.32105263157893        0.03178534183023454
-4                        0.5727219837582656       22.868421052631493       0.030979607886478754
-4                        4                        23.68421052631573        0.01770322280347084
-4                        2.8581227149680126       23.026315789473628       0.02854370108505824
-4                        2.858122714968013        24.342105263157844       0.024325521490132496
-4                        4                        24.999999999999943       0.021369404820133293
-4                        1.716245429936025        23.68421052631574        0.032753328778596304
-4                        -2.8581227149680117      24.34210526315784        0.02159106734914452
-4                        -4                       24.999999999999943       0.018577848203426842
-4                        -2.8581227149680153      25.657894736842056       0.023059939301927027
-4                        -4                       26.31578947368415        0.01739292357630589
-4                        -1.715147989171851       25.10526315789472        0.026457332146238244
-4                        -0.5712953107643342      24.636842105263156       0.028895371357284053
-4                        0.5727219837578597       24.184210526315763       0.029471044278990388
-4                        1.716245429936027        24.999999999999957       0.02759212096939867
-4                        0.5727219837577895       25.49999999999998        0.02934421717934896
-4                        1.716245429936026        26.31578947368415        0.024447297627126507
-4                        2.8581227149680153       25.657894736842056       0.023690886469582464
-4                        2.85812271496801         26.97368421052626        0.017623741487760664
-4                        4                        26.31578947368415        0.01629753789071405
-4                        -0.5712953107643468      25.95263157894734        0.02718075276367837
-4                        -1.7151479891718513      26.421052631578913       0.0264181844047017
-4                        -2.858122714968009       26.97368421052626        0.023791337119027905
-4                        -4                       27.631578947368357       0.01746465900437749
-4                        4                        27.631578947368357       0.010128596003311032
-4                        0.5727219837577806       26.81578947368418        0.024124680943793556
-4                        1.7162454299360252       27.631578947368386       0.019525058931061264
-4                        2.8581227149680153       28.289473684210463       0.015566425050890677
-4                        -0.5712953107643486      27.268421052631552       0.030765148341993218
-4                        -1.715147989171851       27.736842105263104       0.02663407914252232
-4                        -2.8581227149680153      28.289473684210463       0.01807173650118852
-4                        -4                       28.947368421052563       0.0092697234514475
-4                        -1.7151479891718535      29.05263157894732        0.02194866215153694
-4                        4                        28.947368421052563       0.015060200144718114
-4                        2.8581227149680153       29.60526315789467        0.018728269677735294
-4                        -0.5712953107643501      28.584210526315744       0.029454423764093258
-4                        0.5727219837577806       28.131578947368386       0.030055131684221904
-4                        1.716245429936035        28.947368421052577       0.02118372293969342
-4                        0.5727219837577788       29.447368421052587       0.024828889128503978
-4                        -0.5712953107643506      29.899999999999952       0.02684045518544936
-4                        -2.8581227149680153      29.60526315789467        0.015113171811815679
-4                        -4                       30.263157894736768       0.009426505090017155
-4                        -2.8581227149680153      30.92105263157887        0.0159233936248451
-4                        -4                       31.578947368420977       0.015823686196327586
-4                        -1.7151479891718546      30.368421052631533       0.027571137715691432
-4                        4                        30.263157894736768       0.018260610368269342
-4                        1.7162454299360235       30.26315789473677        0.015895141678511894
-4                        0.572721983757777        30.763157894736793       0.016278826205391332
-4                        2.8581227149680126       30.92105263157888        0.019722736203309936
-4                        4                        31.578947368420977       0.014572730632304525
-4                        -1.7151479891718528      31.684210526315738       0.021309009122360358
-4                        -2.8581227149680157      32.236842105263065       0.01771523249159215
-4                        -4                       32.89473684210518        0.015732533274734138
-4                        -0.5712953107643519      31.215789473684165       0.021820594456836945
-4                        1.7162454299360297       31.578947368420998       0.01985802618383804
-4                        -0.5712953107643504      32.53157894736838        0.019371486769807638
-4                        0.572721983757777        32.078947368421005       0.019838525858575175
-4                        4                        32.89473684210518        0.013254630171731507
-4                        2.8581227149680153       32.23684210526307        0.017214693144475334
-4                        1.7162454299360261       32.894736842105196       0.017049614348106343
-4                        -1.7151479891718517      32.99999999999994        0.01566240650008256
-4                        -2.858122714968009       33.55263157894728        0.015198440759768943
-3.999999999999999        -3.999999999999999       34.210526315789394       0.01534674211923869
-4                        0.5727219837577815       33.394736842105225       0.017619945161927195
-3.999999999999999        3.999999999999999        34.210526315789394       0.012232103243775315
-4                        2.858122714968011        33.55263157894729        0.014806896507064403
-4                        1.7162454299360288       34.210526315789416       0.01589470253666347
-4                        -2.8581227149680215      34.868421052631504       0.01501286226366568
-4                        -4                       35.526315789473585       0.014614856952198364
-4                        -2.85812271496801        36.184210526315695       0.010797614160387338
-4                        -4                       36.842105263157805       0.009982086619979838
-4                        -1.7151479891718506      34.31578947368414        0.014882278238367803
-4                        -0.5712953107643486      33.84736842105258        0.015034216176190449
-4                        -0.5712953107643501      35.163157894736784       0.014119623454749361
-4                        -1.7151479891718528      35.63157894736835        0.014222383972513545
-4                        0.5727219837577806       34.710526315789416       0.017937565126859508
-4                        4                        35.526315789473585       0.009690158877567261
-4                        2.8581227149680215       34.868421052631504       0.010402282190199792
-4                        1.7162454299360368       35.526315789473585       0.015420526550832397
-4                        4                        36.842105263157805       0.010772858715713986
-4                        2.85812271496801         36.18421052631569        0.007310498925755995
-4                        1.7162454299360181       36.84210526315781        0.010185930367106497
-4                        0.5727219837577753       36.02631578947361        0.012776849455443282
-4                        -0.5712953107643521      36.47894736842099        0.010185235212093502
-4                        -1.7151479891718535      36.94736842105255        0.0094337435086617
-4                        -2.8581227149680135      37.49999999999992        0.0055167818228067725
-4                        -4                       38.15789473684202        0.010426460117599517
-4                        -2.85812271496801        38.81578947368412        0.009594383217138661
-4                        -4                       39.47368421052623        0.012641992354486237
-4                        4                        38.15789473684202        0.006136100218376056
-4                        4                        39.47368421052623        0.006105548406056237
-4                        2.8581227149680073       38.815789473684134       0.00670580270546596
-4                        2.8581227149680126       37.499999999999915       0.007998326762654663
-4                        1.7162454299360173       38.157894736842024       0.010428185561461266
-4                        -1.7151479891718509      38.26315789473677        0.0077651585625868194
-4                        0.5727219837577717       37.34210526315783        0.008315843717267369
-4                        0.5727219837577762       38.657894736842046       0.011896216076533109
-4                        -0.5712953107643521      37.7947368421052         0.007651469162802556
-4                        -0.5712953107643504      39.11052631578941        0.010842003515530552
-4                        1.7162454299360288       39.47368421052625        0.00938978698478484
-4                        2.8581227149680193       40.13157894736834        0.0077440384142860525
-4                        1.7162454299360317       40.78947368421044        0.004916898180217631
-3.999999999999999        3.999999999999999        40.78947368421043        0.007566005918449616
-4                        -2.8581227149680193      40.13157894736835        0.008980722332194704
-3.999999999999999        -3.999999999999999       40.78947368421043        0.00800540651994112
-4                        -1.7151479891718522      39.57894736842097        0.013225519786591108
-4                        -1.715147989171852       40.89473684210518        0.01037846801132684
-4                        -0.5712953107643495      40.42631578947362        0.010129914037691127
-4                        0.5727219837577788       39.97368421052625        0.009183396574246744
-4                        2.8581227149680126       41.447368421052545       0.007576605788861906
-4                        -2.8581227149680117      41.44736842105254        0.00873844932501966
-4                        -4                       42.10526315789464        0.00985532797007014
-4                        1.716245429936027        42.10526315789465        0.007951963021519308
-4                        0.5727219837577788       41.289473684210456       0.005954721935009441
-4                        -0.5712953107643495      41.742105263157825       0.008732584682440455
-4                        4                        42.10526315789464        0.0072557345551844095
-4                        -1.7151479891718524      42.2105263157894         0.0073473491265231596
-4                        2.8581227149680153       42.76315789473675        0.011389428304419325
-4                        4                        43.42105263157885        0.010038704313366707
-4                        2.8581227149680126       44.07894736842095        0.010669262141652253
-4                        -2.8581227149680153      42.76315789473675        0.008547217005757854
-4                        -4                       43.42105263157885        0.0068806127345728526
-4                        1.7162454299360297       43.421052631578874       0.008886540599579532
-4                        0.5727219837577797       42.605263157894655       0.008707986568136135
-4                        -0.5712953107643488      43.05789473684203        0.009508658247533787
-4                        4                        44.736842105263044       0.0038388799438769214
-4                        -2.8581227149680117      44.07894736842094        0.010136374766098253
-4                        -4                       44.736842105263044       0.00791430610887081
-4                        -1.715147989171851       43.526315789473614       0.008838416403599367
-4                        1.7162454299360288       44.736842105263065       0.00833509655559495
-4                        2.8581227149680126       45.394736842105154       0.007861561895094982
-4                        4                        46.05263157894726        0.008101744896752092
-4                        0.5727219837577806       43.921052631578874       0.006254512314908631
-4                        -0.5712953107643486      44.37368421052624        0.004701294868787492
-4                        -2.8581227149680117      45.39473684210515        0.0074422608304626275
-4                        -4                       46.05263157894726        0.010766244820807796
-4                        -1.7151479891718517      44.842105263157805       0.007030096119584714
-4                        -1.7151479891718522      46.157894736841996       0.004301285630875475
-4                        -0.5712953107643501      45.689473684210434       0.004136499904337821
-4                        0.5727219837577788       45.236842105263065       0.0030517390016399555
-4                        1.7162454299360297       46.052631578947256       0.004118863694097297
-4                        2.8581227149680153       46.71052631578936        0.008426565070732302
-3.999999999999999        3.999999999999999        47.368421052631476       0.008284299108951057
-4                        0.5727219837577762       46.55263157894728        0.004929518756934232
-4                        -0.5712953107643512      47.00526315789466        0.005534768565777713
-4                        -2.8581227149680153      46.71052631578936        0.006875656098214917
-3.999999999999999        -3.999999999999999       47.368421052631476       0.007379301155551282
-4                        -2.85812271496801        48.02631578947359        0.004076837916553497
-4                        -4                       48.68421052631568        0.003981623963836689
-4                        -1.7151479891718524      47.473684210526216       0.0045867270419152764
-4                        1.7162454299360244       47.36842105263148        0.007936572916512548
-4                        2.8581227149680126       48.02631578947357        0.006364557360943805
-4                        4                        48.68421052631568        0.006883190287754251
-4                        -0.5712953107643512      48.321052631578866       0.005429195097900199
-4                        1.7162454299360235       48.68421052631569        0.004936771902096379
-4                        0.5727219837577753       47.86842105263149        0.006641574085079001
-4                        -2.8581227149680126      49.3421052631578         0.004361450572599228
-4                        -1.7151479891718504      48.78947368421043        0.004958305550964909
-4                        -4                       49.99999999999989        0.0016408640369946744
-4                        4                        49.99999999999989        0.004211904917614361