% Model:              Cav_Hex_Unif_flux_v5.1.2 - Wall Distn.mph
% Version:            COMSOL 5.5.0.359
% Date:               May 16 2022, 16:44
% Dimension:          3
% Nodes:              2840
% Expressions:        1
% Description:        Surface
% x                       y                        z                        Color
-8                        5.714285714285713        0                        0.05902517094069578
-8                        8                        0                        0.046097041095261096
-8                        6.399613512553145        1.709006963007598        0.050683675408145924
-8                        4.482995757972045        1.9744690261730424       0.061694224226402035
-7.999999999999998        3.4285714285714284       0                        0.06501508915121862
-8                        2.2857142857142847       2.1395157600494485       0.06563193102713402
-8                        8                        2.5641025641025665       0.05469702254022287
-8                        -5.714285714285714       0                        0.06820357838126959
-8                        -5.754801530403203       1.8820578931072252       0.06280134271818165
-8                        -8                       0                        0.06312960815051508
-8                        -8                       2.5641025641025665       0.07053593420954564
-7.999999999999998        -3.428571428571428       0                        0.06567783843119482
-8                        -3.9609101705761747      2.524278643727529        0.052735405646795755
-7.999999999999998        1.142857142857142        0                        0.07185084155750483
-8.000000000000002        -1.1428571428571426      0                        0.06966998583798119
-8                        -2.1043988840981296      2.225593583014818        0.05443414452611812
-8                        0                        2.1395157600494485       0.06547383878895009
-7.999999999999998        7.999999999999998        5.128205128205133        0.06908591236138895
-8                        5.8007860869900565       4.006463218196776        0.0675468324948958
-8                        1.0269477883073517       4.034277380187001        0.06750351491540406
-8                        3.268663356429825        4.160269695150487        0.06830463970313133
-7.999999999999998        -7.999999999999998       5.128205128205133        0.07682396513835295
-8                        -5.4484138510570155      4.107507802736166        0.06845477700521728
-8                        -3.041207673239231       3.888516329869307        0.04314302020874879
-8                        -5.746647837406634       6.703549938355801        0.0726714118876206
-8                        -3.6408576312798684      5.745116325733803        0.05597062304779212
-8                        -8                       7.692307692307701        0.06824171108909016
-8                        4.191857806960444        5.720834870997327        0.06365442390056328
-8                        5.94189573375385         6.553042846969359        0.07026917126188618
-8                        8                        7.692307692307701        0.07177672056144264
-8                        -5.786728177056389       8.980454142114658        0.06813509536697404
-8                        -3.7122975175897484      7.883722758340506        0.061200757076494035
-8                        -1.0666328400541012      3.8460760166785235       0.04825211911663194
-8                        -1.9515480287373954      6.926208432567616        0.051881854687247764
-8                        -2.010239761225051       5.2158163145966          0.042726336360953035
-8                        1.962363115826589        6.3043447651149          0.0696106265396558
-8                        -0.3532909498000407      5.703356428415108        0.06048608096156886
-8                        -0.08063597291763759     7.893415661345959        0.06002407990798092
-8                        3.882628231042066        7.79608719775009         0.06779014586380684
-8                        -1.895738749287311       9.105278866375667        0.05512194174185434
-7.999999999999998        -7.999999999999998       10.256410256410268       0.06005631166821304
-8                        1.799033486682216        8.98930315195119         0.06720771319840509
-8                        3.5522045550610564       10.25641025641022        0.07227272683396926
-8                        5.776102277530525        8.974358974358987        0.07391788985791356
-7.999999999999998        7.999999999999998        10.256410256410268       0.07504907550400625
-8                        -0.08321872793017526     10.247747910984728       0.06123551041935613
-8                        1.7217323080633822       11.505753302241995       0.06260458442374589
-8                        -5.776102277530514       11.538461538461497       0.06589112759128418
-8                        -8                       12.820512820512837       0.06515497015743554
-8                        -3.7540090134038966      10.312804120893947       0.062394237038851476
-8                        -1.9204304450892735      11.511182428211475       0.06400789410648877
-8                        3.5522045550610244       12.82051282051282        0.07209880926279467
-8                        8                        12.820512820512837       0.07881634609082783
-8                        5.776102277530514        11.538461538461497       0.08141510963107036
-8.000000000000002        8.000000000000002        15.384615384615401       0.06393370388090287
-8                        5.776102277530524        14.10256410256412        0.07648805723830011
-8                        -5.776102277530524       14.10256410256412        0.07686533948697058
-8.000000000000002        -8.000000000000002       15.384615384615401       0.07048832063543731
-8                        -3.721562756843417       12.74242196360682        0.07274017775312518
-8                        -0.10906543442189731     12.747966585779945       0.06598705869345915
-8                        -1.9364541467296488      13.992417313189275       0.07275069743183477
-8                        1.7164563219627242       14.05512977703225        0.06100292411488779
-8                        3.552204555061049        15.384615384615397       0.07423590305339417
-8                        5.776102277530525        16.66666666666668        0.07332011854459917
-7.999999999999998        7.999999999999998        17.948717948717967       0.055088231042467926
-8                        -3.830218715012013       15.31543874986767        0.07712964382110944
-8                        -5.776102277530526       16.66666666666665        0.07162383053193386
-7.999999999999998        -7.999999999999998       17.948717948717967       0.06763090947338202
-8                        -0.11557740468984123     15.291572288592437       0.06910079092343523
-8                        -1.9567508865658196      16.55198051081075        0.06982927151863598
-8                        1.7161987618227972       16.61267166332867        0.0669952531222915
-8                        -0.11902771243354195     17.84529448682051        0.06075441667390805
-8                        1.7137574578770973       19.158821245964575       0.06326525629769299
-8                        3.5522045550610617       17.948717948717956       0.07859550623466004
-8                        5.776102277530526        19.230769230769205       0.0740538395512688
-8.000000000000002        8.000000000000002        20.51282051282054        0.06359077755350072
-8                        -3.82120332197573        17.85285757683457        0.07080991169585919
-8                        -5.776102277530526       19.230769230769205       0.06981617561142726
-8.000000000000002        -8.000000000000002       20.51282051282054        0.07018972208874917
-8                        -5.776102277530514       21.79487179487179        0.0647843585638473
-8                        -8                       23.0769230769231         0.05631268577526279
-8                        -3.827588452737939       20.424864055639635       0.06671787333599655
-8                        -1.9592042811756973      19.11195645635906        0.060971750025707365
-8                        -0.11388093783221541     20.406358326216424       0.057589938033982234
-8                        8                        23.0769230769231         0.06664650885115632
-8                        5.776102277530514        21.79487179487179        0.07379107390650598
-8                        3.552204555061035        20.51282051282044        0.07412027212580437
-8                        1.7158245672928751       21.720907031230286       0.05845083487913682
-8                        -1.9683460160034083      21.690517329062086       0.05969348776646884
-8                        5.776102277530514        24.358974358974343       0.06711700149667665
-8                        8                        25.641025641025678       0.06661488923845459
-8                        3.5522045550610386       23.076923076923066       0.06791291047967789
-8                        -5.776102277530514       24.358974358974343       0.06318524346792498
-8                        -8                       25.641025641025678       0.06019347460549975
-8                        -3.8409965569192366      22.996648971229906       0.0625081998370192
-8                        -3.8139511220927034      25.549798549576906       0.06252049673678202
-8                        -1.959910318603026       24.24589171098504        0.05778920351155725
-8                        -0.12141596161162171     22.979018696188547       0.056053403580096535
-8                        1.715814264512199        24.299276501019417       0.06220469421824568
-8                        -5.776102277530527       26.923076923076938       0.057744094014411586
-7.9999999999999964       -7.9999999999999964      28.205128205128236       0.05174936218037316
-8                        3.552204555061025        25.64102564102566        0.06788251174552971
-8                        5.776102277530525        26.923076923076962       0.06736696257811232
-7.9999999999999964       7.9999999999999964       28.205128205128236       0.05776510167870966
-8                        -0.11998395581493027     25.547111026387846       0.05575552233492492
-8                        -1.9554241446733513      26.798902917950866       0.060797645659736756
-8                        -3.8271474989923147      28.119639533375          0.05322875199958783
-8                        -5.776102277530523       29.48717948717951        0.05033501441249776
-7.999999999999998        -7.999999999999998       30.7692307692308         0.056745382705176935
-8                        1.7170846777242217       26.86446427355378        0.060549885324423285
-8                        -3.842326917971946       30.690255283764813       0.04843833811626306
-8                        3.5522045550610493       28.20512820512824        0.06567598675551695
-7.999999999999998        7.999999999999998        30.7692307692308         0.06181762400491353
-8                        5.776102277530525        29.487179487179517       0.06765276889680563
-8                        -1.9654201059302314      29.37418067478721        0.05933087516382246
-8                        -0.12251723506813804     28.111180961120823       0.057456614853923255
-8                        1.7127913733278994       29.417414145291467       0.0611102100155105
-8                        -5.776102277530526       32.05128205128205        0.051846238187589634
-8                        -8                       33.33333333333337        0.04917533703094539
-8                        3.5522045550610493       30.769230769230795       0.0638955901302475
-8                        5.776102277530525        32.05128205128208        0.06803535381384898
-8                        8                        33.33333333333337        0.06464425647056903
-8                        -3.8141339310020586      33.24205790336337        0.05975018679869342
-8                        -1.9636733602205165      31.935109887738086       0.06227591612404329
-8                        -0.12415125504244351     30.665012728753503       0.06655778447792228
-8                        1.7147735591435378       31.98951543262321        0.062349351016799615
-8                        3.5522045550610444       33.33333333333336        0.06010458806973215
-8                        -0.11704197295649266     33.22043931956401        0.06299056463876791
-8                        -5.776102277530509       34.61538461538463        0.05565044573525054
-8                        -8                       35.89743589743594        0.04605462880646177
-8                        -3.824533647543424       35.80994279947316        0.060381089928312336
-8                        5.776102277530514        34.615384615384635       0.06055977097046369
-8                        8                        35.89743589743594        0.04823502236993221
-8                        1.7206450309432313       34.553326244526296       0.05736089740026994
-8                        -1.9566941303588108      34.498974464209375       0.06329122562596719
-8                        -5.776102277530525       37.179487179487225       0.05021433179299908
-8                        -8                       38.4615384615385         0.04088466495600642
-8                        -3.738004916084436       38.33846153846161        0.054203304920673025
-8                        -1.9332011136432339      37.056777890766206       0.056372778080857076
-8                        5.776102277530525        37.179487179487225       0.04643541949299621
-8                        8                        38.4615384615385         0.03895240088136176
-8                        5.776102277530519        39.74358974358978        0.04250085959374478
-8                        -5.776102277530519       39.74358974358978        0.04681812931677173
-8                        3.5522045550610333       35.89743589743595        0.05956095396749764
-8                        -0.10440329570126394     35.78182349600478        0.05416017579245125
-8                        1.7365953237776353       37.0988603242147         0.05745308910958346
-8                        -0.0740329054585831      38.3203691500474         0.05161526622053306
-8                        3.7130064962925395       38.42658851973195        0.05460641495560056
-8                        -8                       41.02564102564108        0.03947053185128713
-8                        8                        41.02564102564108        0.03854639156172596
-8                        -3.7380049160844404      40.90256410256416        0.05239717800276122
-8                        -1.901537786712888       39.591095896400894       0.05504721990887401
-8                        1.8004777585988716       39.63972468587092        0.05609481378820435
-8                        -0.061811597806911596    40.84401738971057        0.05312952601557718
-8                        3.7123812543917154       40.98967952667729        0.0490676694547784
-8                        5.776102277530526        42.30769230769238        0.042960961486214165
-8                        -5.776102277530525       42.30769230769238        0.04252014672722848
-8                        -8                       43.58974358974364        0.03646561890259601
-8                        -3.7380049160844377      43.46666666666679        0.047759901308506124
-8                        -1.8950863692344304      42.14912671713831        0.04837221203828292
-8                        8                        43.58974358974364        0.044106791481655284
-8                        5.776102277530519        44.87179487179493        0.04667171287454175
-8                        -5.776102277530519       44.87179487179493        0.041018844105400486
-8                        1.8051557205423947       42.20296932394816        0.05593897278977364
-8                        -0.05402429069179204     43.40742985944477        0.0484171627171403
-8                        3.6910011087671943       43.55849137630719        0.05245657006839458
-8                        -8                       46.1538461538462         0.038602012194209924
-8                        8                        46.1538461538462         0.042655110140202464
-8                        -3.7380049160844395      46.030769230769344       0.04522084346038007
-8                        -1.892821011268893       44.713063643202574       0.04882265087621626
-8                        1.8082720204042495       44.76626900854439        0.05422432279527356
-8                        -0.052158836996461844    45.97115385276016        0.051330395436666114
-8                        3.7136555732676797       46.11627723992249        0.047829228965624554
-8                        5.776102277530526        47.43589743589749        0.03855369324380258
-8                        -5.776102277530525       47.43589743589749        0.042036394707961174
-8                        -8                       48.71794871794877        0.03913738767393252
-8                        -3.738004916084439       48.5948717948719         0.040847524751481276
-8                        -1.8796467385217939      47.25323553243601        0.04841308651202533
-8                        8                        48.71794871794877        0.029283430258783726
-8                        5.776102277530514        50.00000000000004        0.03310548477624417
-8                        -5.776102277530513       50.000000000000064       0.03993766506806364
-8                        1.8073970888077842       47.329425234900604       0.04776924185476383
-8                        -0.052732904668664204    48.5350688391251         0.04421997786853579
-8                        3.745135709791313        48.67278774031427        0.04128362148387866
-8                        -8                       51.28205128205134        0.03685779398001727
-8                        8                        51.28205128205134        0.02902762378991433
-8                        -3.738004916084438       51.158974358974525       0.03592615638396642
-8                        -1.8796058291287763      49.81730633017889        0.04035980300202429
-8                        1.8188325682874993       49.89169049668779        0.04035009901385586
-8                        -0.049068507565419146    51.10604397053336        0.03944630321160392
-8                        3.7192109345474016       51.2440318130724         0.038122941386794
-8                        5.776102277530525        52.56410256410264        0.034084799531311445
-8                        -5.776102277530525       52.56410256410264        0.035586296394077406
-8                        -8                       53.846153846153896       0.033798713048777025
-8                        -1.8822826937231445      52.387899162366594       0.038761658033467455
-8                        -3.7380049160844404      53.72307692307707        0.034469417943044374
-8                        8                        53.846153846153896       0.02888082776611904
-8                        5.776102277530519        55.128205128205195       0.03448449304807349
-8                        -5.776102277530519       55.128205128205195       0.0323694385951212
-8                        1.8163666973574344       52.45666126985513        0.03573666180944473
-8                        -0.04762510966065925     53.67222613577219        0.03395604791209243
-8                        3.719209493164947        53.80830630948126        0.03567478083491167
-8                        -8                       56.410256410256466       0.031400770163160036
-8                        8                        56.410256410256466       0.029871260927127764
-8                        -3.7380049160844417      56.28717948717963        0.03489186611932477
-8                        -1.8864013985029755      54.9630891066204         0.03460894344116098
-8                        1.8138408946511915       55.020280691438515       0.029387580666313654
-8                        -0.040378808697045354    56.258197748145754       0.03167663847161995
-8                        3.7185450841743712       56.37222818744425        0.03146703756997055
-8                        5.776102277530526        57.69230769230775        0.029019184352952903
-8                        -5.776102277530525       57.69230769230778        0.029512661646689586
-8                        -8                       58.97435897435903        0.027201651270423195
-8                        -1.8843285166570252      57.51542157901107        0.03417003073843349
-8                        -3.7380049160844417      58.85128205128218        0.026645600746927494
-8                        8                        58.97435897435903        0.026804039140171168
-8                        5.776102277530525        60.256410256410334       0.026703756063031426
-8                        -5.776102277530525       60.256410256410334       0.025529763225208058
-8                        1.8245352842721374       57.58665976833659        0.029468169979029218
-8                        -0.03840753766844829     58.826135885578125       0.03073889123714989
-8                        3.7180422825573203       58.93618978380886        0.02750788853593211
-8                        -8                       61.5384615384616         0.023617223454166485
-8                        8                        61.5384615384616         0.025097060933178764
-8                        -3.7380049160844404      61.41538461538476        0.028384085199762987
-8                        -1.8873040674358725      60.08268175134639        0.02818298083277346
-8                        1.8105366989972946       60.14772975529965        0.027070862718006027
-8                        -0.053505816490180276    61.36612471132928        0.02335663147664328
-8                        3.717773350464043        61.500369270247674       0.026511986079567628
-8                        5.776102277530519        62.82051282051292        0.023115694887091393
-8                        -5.776102277530519       62.82051282051292        0.02702134806514357
-8                        -8                       64.10256410256417        0.02337503522590527
-8                        -1.882404422309085       62.6365289117421         0.028885752269352683
-8                        -3.7380049160844364      63.979487179487315       0.02693818915675836
-8                        8                        64.10256410256417        0.017428386789842612
-8                        5.776102277530514        65.38461538461546        0.021169596681276468
-8                        -5.776102277530514       65.38461538461546        0.023916537555740292
-8                        1.8115140867146753       62.71351559729347        0.021375189870860716
-8                        -0.04657919364945373     63.9354389574244         0.02403725465407303
-8                        3.7151263087981583       64.06483214538041        0.024927677074257637
-8                        -8                       66.66666666666673        0.019567718288338847
-8                        8                        66.66666666666673        0.020600948413146063
-8                        -3.7380049160844364      66.5435897435899         0.020853942337431198
-8                        -1.8794389840534655      65.2095196074543         0.02602634249511085
-8                        1.8125170056119124       65.27845774696345        0.02151572058420464
-8                        -0.04212431538076622     66.48550378611553        0.022225741239362457
-8                        3.693058412433663        66.63337299282763        0.024690771545533664
-8                        5.7761022775305255       67.94871794871804        0.021967687924690792
-8                        -5.776102277530525       67.94871794871804        0.01812353888056672
-8                        -8                       69.2307692307693         0.018514365912620335
-8                        -1.8683100900738228      67.76112617175414        0.02069467313985276
-8                        -3.7380049160844373      69.10769230769247        0.016826173062304783
-8                        8                        69.2307692307693         0.021777179137017263
-8                        5.776102277530514        70.51282051282061        0.021281289797123418
-8                        -5.776102277530514       70.51282051282061        0.01852510945131464
-8                        1.8200252330299218       67.83681060341897        0.0191620343713186
-8                        -0.012894125852987774    69.04553646876262        0.021734302174802867
-8                        3.717367602065906        69.19104076292797        0.023091393997418733
-8                        1.8288500182007825       70.39477500219127        0.02293462294816741
-8                        -8                       71.79487179487188        0.01963271215905656
-8                        8                        71.79487179487188        0.01862058006467004
-8                        -3.7380049160844386      71.67179487179503        0.020812736731150933
-8                        -1.7928077351500546      70.20512820512836        0.022064403501767627
-8                        0.006353049097747032     71.58761165673351        0.020742712463209353
-8                        3.7216578793955275       71.75380643034516        0.019988795209403252
-8                        5.776102277530532        73.07692307692315        0.01935828573014323
-8                        8                        74.35897435897442        0.017669868026859
-8                        -5.77610227753053        73.0769230769232         0.020806063222111832
-8                        -8                       74.35897435897442        0.023549260253504983
-8                        -1.7928077351500524      72.76923076923094        0.017127413346025955
-8                        -3.7380049160844404      74.2358974358976         0.018190015069674725
-8                        -5.776102277530519       75.64102564102575        0.021817129263461795
-8                        5.776102277530519        75.64102564102575        0.019781608627335766
-8                        1.8302260287282888       72.95769509917514        0.020525665955397048
-8                        0.009564709131710813     74.14784476430394        0.017426957270890667
-8                        3.722429353596654        74.31762264156578        0.018355583877867964
-8                        1.8287686681302873       75.52191720022017        0.020300259369849378
-8                        -8                       76.92307692307699        0.0205974113624257
-8                        8                        76.92307692307699        0.016373479975450328
-8                        3.7225701101556616       76.88166364657245        0.018916976834843578
-8                        -3.7380049160844426      76.80000000000015        0.017161808113316027
-8                        -1.7928077351500602      75.33333333333347        0.016093092284734527
-8                        0.00809570689822614      76.71168121743865        0.015669698189137715
-8                        -5.776102277530523       78.20512820512829        0.017494084634108818
-7.999999999999998        -7.999999999999998       79.48717948717956        0.0141675426268153
-8                        5.7761022775305255       78.2051282051283         0.016628314624537406
-7.999999999999998        7.999999999999998        79.48717948717956        0.019844819936732885
-8                        -1.7928077351500615      77.89743589743603        0.014279361704540486
-8                        -3.738004916084443       79.36410256410271        0.014261775042009294
-8                        1.818180451080428        78.08819700275501        0.016008006567104348
-8                        -5.776102277530525       80.76923076923086        0.013071626963576742
-8                        3.7225960613175757       79.44575310453084        0.0144877865029317
-8                        0.007863211331184061     79.2757287818821         0.01102434125928424
-8                        1.8288388778463072       80.65006301441235        0.011410410254323789
-8                        -8                       82.0512820512821         0.011323322948790251
-8                        5.776102277530525        80.76923076923086        0.018110881332329548
-8                        8                        82.0512820512821         0.015963338754791636
-8                        -3.738004916084444       81.92820512820526        0.013874382557206693
-8                        -1.7928077351500604      80.46153846153861        0.01601177751537131
-8                        0.009897343831895        81.83938690236184        0.015541605201388487
-8                        -1.7928077351500602      83.02564102564116        0.0167940119508834
-8                        -5.776102277530525       83.33333333333341        0.010908061660421915
-7.999999999999998        -7.999999999999998       84.61538461538467        0.009018392866442944
-8                        -3.7380049160844426      84.49230769230782        0.01381646136415342
-8                        3.7226008788257925       82.00985291977824        0.014869230390012977
-8                        1.8306170086704583       83.21379134198598        0.0135639125969357
-8                        -5.776102277530525       85.89743589743597        0.012252442458512295
-7.999999999999998        -7.999999999999998       87.17948717948723        0.012949713969454315
-7.999999999999998        7.999999999999998        84.61538461538467        0.011831362375729695
-8                        5.776102277530525        83.33333333333341        0.015997267071672303