% Model:              Cav_Hex_Unif_flux_v5.1.2 - Wall Distn.mph
% Version:            COMSOL 5.5.0.359
% Date:               May 16 2022, 16:43
% Dimension:          3
% Nodes:              1336
% Expressions:        1
% Description:        Surface
% x                       y                        z                        Color
-0.5                      0.09999999999999996      25                       9.836366467922713E-201
-0.5                      -0.09999999999999998     25                       9.83636646792237E-184
-0.5                      0.002333654667216245     24.827275042433737       6.557577645280536E-118
-0.5                      -0.15583266574925767     24.800547314462463       7.869093174336643E-118
-0.5                      -0.07423961492809218     24.665548796588457       6.557577645280536E-118
-0.5                      0.15526738994042688      24.806432189614757       0
-0.5                      0.08905723034895052      24.69507632821304        0
-0.5                      0.29999999999999993      25                       1.9672732935845427E-200
-0.5                      0.3056604652107924       24.872713706582054       6.557577645281809E-201
-0.5                      0.2786954013243277       24.65920784804271        0
-0.5                      0.5                      25                       0
-0.5000000000000001       -0.3                     25.000000000000004       0
-0.5                      -0.3064266791152874      24.871321035059168       6.557577645282745E-269
-0.5                      -0.2831192577147499      24.656964441909313       5.6207808388137745E-267
-0.5                      -0.5                     25                       1.9672732935848235E-268
-0.5                      -0.13974644514749565     24.52118840190945        7.869093174336949E-128
-0.5                      0.08322932074087364      24.516917764385525       5.620780838812106E-128
-0.5                      -0.30598256131349244     24.430797541212534       6.557577645282737E-267
-0.5                      0.3010088142157503       24.426605504587158       0
-0.5                      0.5                      24.770642201834864       0
-0.5                      0.5                      24.541284403669728       0
-0.5                      0.5                      24.31192660550459        1.3115155290561228E-123
-0.5                      -0.5                     24.770642201834864       1.311515529056549E-268
-0.5                      -0.5                     24.541284403669728       0
-0.5                      -0.5                     24.31192660550459        0
-0.5                      0.09548845746265988      24.275997848150404       6.557577710858117E-243
-0.5                      -0.3029759389457244      24.212491566799226       6.557577645281427E-182
-0.5                      -0.11005372607298469     24.340929827482917       6.55757764528079E-128
-0.5                      -0.10167562101216455     24.125628977363363       6.557577645281427E-182
-0.5                      0.30100881421575076      24.19724770642202        6.557577645280614E-124
-0.5                      0.09941314268873393      24.048657308661454       6.557577645281494E-185
-0.5                      0.5                      24.082568807339452       1.3115155290561228E-123
-0.5                      -0.5                     24.082568807339452       1.3115155290562409E-158
-0.5                      -0.30053688752608054     23.985676243263974       6.557577645280484E-107
-0.5                      -0.5                     23.853211009174313       1.3115155290560967E-106
-0.5                      -0.10027927016869431     23.89861400387249        6.557577645281292E-169
-0.5                      -0.30025761975987364     23.756786955412203       6.557577645280484E-107
-0.5                      -0.10004654502811551     23.669646676486394       6.557577645281291E-169
-0.5                      -0.3002110891466807      23.527506923673975       6.557577645280345E-105
-0.5                      0.10051432369201652      23.59076989552934        6.557577645937135E-170
-0.5                      0.1003171163817339       23.819942443961196       6.557577645281292E-169
-0.5                      0.3010088142157509       23.967889908256883       6.557577645281705E-202
-0.5                      0.5                      23.853211009174313       1.311515529056149E-125
-0.5                      0.30100881421575076      23.738532110091743       6.557577645280744E-126
-0.5                      -0.10000775750468549     23.440353956784428       6.557577645280345E-105
-0.5                      0.10055494908174933      23.361455988012388       6.557577645279968E-79
-0.5                      0.30100881421575143      23.50917431192661        0
-0.5                      0.5                      23.623853211009177       1.311515529056149E-125
-0.5                      -0.5                     23.623853211009177       1.3115155290563476E-197
-0.5                      0.5                      23.394495412844037       0
-0.5                      -0.5                     23.394495412844037       1.3115155290564597E-236
-0.5                      -0.10000129291744783     23.21100700502982        6.564135222925248E-79
-0.5                      -0.3002034181315325      23.29816017482807        6.557577645280345E-105
-0.5                      -0.5                     23.1651376146789         1.3115155290564597E-236
-0.5                      -0.30020264415131026     23.068792747704602       6.557577651837667E-82
-0.5                      -0.10000021548624183     22.981651014599773       6.557577651837667E-82
-0.5                      -0.30020554228842167     22.839364521643894       6.557577645280218E-91
-0.5                      0.10056301289748537      23.132107674237385       6.557577645279968E-79
-0.5                      0.10056457235301687      22.902751818350954       6.557577645281194E-157
-0.5                      0.3010088142157503       23.27981651376147        6.557577645280544E-112
-0.5                      0.5                      23.1651376146789         1.3115155290562308E-162
-0.5                      0.3010088142157498       23.050458715596328       6.557577645280544E-112
-0.5                      -0.10000003591437279     22.752293517723814       6.557584202858816E-160
-0.5                      0.30100881421575376      22.821100917431195       6.557643221057647E-157
-0.5                      0.10056486817664567      22.67339440415677        6.557643227615223E-157
-0.5                      0.3010088142157498       22.59174311926606        6.557577645281249E-162
-0.5                      0.5                      22.935779816513758       1.3115155290562308E-162
-0.5                      -0.5                     22.935779816513758       1.3115155290561668E-134
-0.5                      0.5                      22.70642201834863        0
-0.5                      -0.5                     22.70642201834863        1.311515529056276E-178
-0.5                      -0.3002241881141662      22.609582047081076       6.557577645280274E-91
-0.5                      -0.10000000598572847     22.52293576977354        6.557577645280755E-129
-0.5                      -0.3003938130259518      22.387334296339827       6.557577645280274E-91
-0.5                      -0.09982439311623459     22.29757050374126        6.557577645280755E-129
-0.5                      -0.3002241813247972      22.150866462142137       6.557577645346753E-160
-0.5                      0.10056761349522647      22.444097841870477       6.557577645280755E-129
-0.5                      0.3010088142157493       22.362385321100916       6.557577645281161E-162
-0.5                      0.10064758346517745      22.216557933184315       6.557577645281161E-162
-0.5                      0.30100881421575226      22.133027522935777       6.557577645281258E-170
-0.5                      0.10065854384124417      21.987449314564895       6.55757765183885E-167
-0.5000000000000001       0.5000000000000001       22.47706422018349        1.3115155290565406E-265
-0.5                      0.5                      22.247706422018346       1.3115155290562517E-169
-0.5000000000000001       -0.5000000000000001      22.47706422018349        1.3115155290560548E-90
-0.5                      -0.5                     22.247706422018346       1.3115155290562546E-170
-0.4999999999999999       -0.4999999999999999      22.018348623853214       1.3115155290561279E-118
-0.5                      -0.0997733285409016      22.06937365436797        6.557577645281409E-176
-0.5                      -0.09976118511962218     21.840291935515825       6.5575776518386425E-155
-0.4999999999999999       -0.4999999999999999      21.78899082568807        1.4426670819617408E-118
-0.5                      -0.30020549928908835     21.921933401128467       6.557577645280639E-119
-0.5                      -0.30020238558952833     21.692646392533774       6.557577645279211E-19
-0.4999999999999999       0.4999999999999999       22.018348623853214       1.3115155290562517E-169
-0.5                      0.10066109710341087      21.758149563895383       6.557577645287623E-155
-0.5                      0.3010088142157498       21.90366972477064        6.557577645281266E-167
-0.5                      0.3010088142157503       21.6743119266055         6.557577645347128E-184
-0.5                      0.1006616437369573       21.528804193243175       6.55757764528041E-105
-0.5                      -0.0997585557677162      21.61099391521959        6.557577645279211E-19
-0.5                      0.30100881421575176      21.444954128440365       6.55757764528041E-105
-0.5                      0.10066175502436514      21.299448925152202       6.557577651837988E-105
-0.5                      0.30100881421575176      21.215596330275226       6.557577645280699E-123
-0.5                      0.1006617769359317       21.070091625136474       6.557577645279973E-75
-0.4999999999999999       0.4999999999999999       21.78899082568807        0
-0.4999999999999999       -0.4999999999999999      21.55963302752293        1.311515529056131E-119
-0.4999999999999999       0.4999999999999999       21.55963302752293        1.3115155290694255E-183
-0.4999999999999999       0.4999999999999999       21.330275229357795       1.311646693724459E-221
-0.5                      -0.3002018666351114      21.463300392637912       6.557577645279211E-19
-0.4999999999999999       -0.4999999999999999      21.330275229357795       1.3115155290560568E-94
-0.5                      -0.0997580166334654      21.38164837414242        6.557577645281299E-127
-0.5                      -0.09975790995945577     21.152293001177156       6.55757764534683E-114
-0.5                      -0.3002017801419601      21.23394456085224        6.557577645280284E-95
-0.5                      -0.09975788937737959     20.922935670937356       6.623153421732751E-73
-0.5                      -0.3002017657263105      21.00458709041723        6.5575776452790856E-15
-0.5                      0.3010088142157513       20.98623853211009        6.55757764528028E-97
-0.5                      0.10066178114847524      20.84073392274131        6.623153421732751E-73
-0.5                      -0.09975788547985032     20.693577961380672       6.557577645279951E-73
-0.4999999999999999       0.4999999999999999       21.100917431192663       1.3115155290561398E-122
-0.4999999999999999       -0.4999999999999999      21.100917431192663       1.3115155290558171E-14
-0.5000000000000001       -0.5000000000000001      20.871559633027523       1.3115155290558171E-14
-0.5                      -0.3002017633236808      20.775229346873815       6.623153421732836E-78
-0.5000000000000001       -0.5000000000000001      20.642201834862394       1.3246306843465673E-77
-0.5                      -0.30020176292323886     20.545871557812305       6.623153421732836E-78
-0.5000000000000001       0.5000000000000001       20.871559633027523       1.3115286442114976E-153
-0.5                      0.10066178194400222      20.611376142662017       6.55757764528002E-78
-0.5                      0.30100881421575226      20.756880733944957       6.5575776452874405E-142
-0.5000000000000001       0.5000000000000001       20.642201834862394       1.3115155290560521E-98
-0.5                      -0.09975788475239789     20.46422017975376        6.557577645280026E-78
-0.5                      -0.30020176285649824     20.316513761164437       6.557577645279185E-13
-0.5                      -0.09975788461817858     20.234862384640014       6.557577645279185E-13
-0.5                      0.10066178209216248      20.38201834786522        6.557577645280676E-78
-0.5                      0.3010088142157498       20.527522935779825       6.557577645280261E-99
-0.5                      0.3010088142157498       20.298165137614685       6.557577645280253E-91
-0.5                      0.10066178211945143      20.152660550320473       6.557577645280253E-91
-0.5000000000000001       0.5000000000000001       20.41284403669725        1.3115155290560521E-98
-0.5000000000000001       -0.5000000000000001      20.41284403669725        1.32463200897779E-265
-0.4999999999999999       -0.4999999999999999      20.18348623853211        1.311515529055983E-73
-0.5                      -0.30020176284537503     20.087155963252172       6.557577645279185E-13
-0.4999999999999999       0.4999999999999999       20.18348623853211        1.3115155290562508E-162
-0.5                      -0.30020176284352096     19.85779816512919        7.213991167573133E-116
-0.5                      -0.09975788459364575     20.005504587032615       6.623153421732352E-46
-0.5                      0.3010088142157503       20.068807339449542       6.557577645281254E-163
-0.5                      0.10066178212443244      19.923302752268576       6.5575776452795556E-46
-0.5                      -0.0997578845891962      19.776146788968628       6.5575776452795556E-46
-0.5                      0.5                      19.954128440366972       1.3115155290562492E-161
-0.5                      0.30100881421575154      19.839449541284402       6.557577645345663E-86
-0.5                      0.10066178212533494      19.693944954123946       7.21333540981465E-85
-0.5                      0.301008814215751        19.610091743119266       6.557577645279952E-69
-0.5                      -0.5                     19.954128440366972       1.311515529055983E-73
-0.5                      0.5                      19.724770642201836       1.3115155290560754E-106
-0.5                      -0.5                     19.724770642201836       1.3115155290561205E-119
-0.5                      -0.3002017628432119      19.628440366971077       6.558233403045078E-116
-0.5                      -0.5                     19.4954128440367         1.3115155290693397E-153
-0.5                      -0.09975788458839444     19.546788990821714       6.557577645279098E-8
-0.5                      -0.3002017628431606      19.399082568807106       6.557577645280618E-122
-0.5                      -0.09975788458825086     19.317431192659843       6.557577645279098E-8
-0.5                      0.5                      19.4954128440367         1.3115155290559905E-68
-0.5                      0.10066178212549727      19.464587155962498       6.557577645279098E-8
-0.5                      0.10066178212552634      19.235229357798023       6.55757764528651E-71
-0.5                      0.30100881421575043      19.38073394495413        6.557577645280018E-69
-0.5                      0.5                      19.26605504587156        1.3115155290560255E-88
-0.5                      0.5                      19.036697247706428       1.3115155290560255E-88
-0.5                      0.3010088142157513       19.151376146788994       6.55757764528651E-71
-0.5                      -0.3002017628431518      19.169724770642162       6.55757764527963E-54
-0.5                      -0.09975788458822524     19.08807339449529        6.55757764527963E-54
-0.5                      0.10066178212553145      19.005871559633004       6.557577645279953E-71
-0.5                      -0.3002017628431505      18.940366972477058       6.557577645280326E-103
-0.5                      -0.5                     19.26605504587156        1.3115155290562933E-177
-0.5                      -0.5                     19.036697247706428       1.3115155290561472E-123
-0.5                      0.5                      18.807339449541285       1.3115155290559665E-60
-0.5                      0.3010088142157503       18.922018348623855       6.557577645280014E-81
-0.5                      0.30100881421575154      18.69266055045872        6.557577645279832E-61
-0.5                      0.5                      18.57798165137615        1.3115155290559665E-60
-0.5                      0.3010088142157503       18.46330275229358        6.695286775831621E-86
-0.5                      0.10066178212553245      18.776513761467886       6.557577645280101E-80
-0.5                      -0.09975788458822066     18.858715596330256       6.557577645280326E-103
-0.5                      -0.30020176284315003     18.711009174311926       6.557577645279035E-4
-0.5                      -0.09975788458821985     18.629357798165135       6.557577645345559E-72
-0.5                      -0.3002017628431499      18.481651376146786       6.557577645286278E-60
-0.5                      0.10066178212553258      18.547155963302753       6.564135295058736E-80
-0.5                      -0.09975788458821988     18.4                     6.623153421732526E-60
-0.5                      -0.5                     18.807339449541285       0.001311515529055807
-0.5                      -0.5                     18.57798165137615        0.001311515529055807
-0.5                      -0.5                     18.34862385321101        1.3115155290559027E-37
-0.5                      -0.3002017628431499      18.25229357798165        6.557577645279513E-38
-0.5                      -0.09975788458822021     18.17064220183486        6.557577645280499E-62
-0.5                      0.5                      18.34862385321101        1.3115155290559722E-62
-0.5                      0.10066178212553223      18.317798165137614       6.557577645280499E-62
-0.5                      0.10066178212553212      18.088440366972474       6.557577645279622E-46
-0.5                      0.3010088142157503       18.233944954128443       6.557577645279622E-46
-0.5                      0.30100881421574965      18.0045871559633         6.557577645279622E-46
-0.5                      0.301008814215754        17.775229357798167       6.629711005935858E-94
-0.5                      0.10066178212553278      17.85908256880734        6.557577645279814E-67
-0.5                      0.5                      18.119266055045873       1.3115155290559722E-62
-0.4999999999999999       0.4999999999999999       17.88990825688073        1.4426670819617858E-132
-0.5                      -0.5                     18.119266055045873       1.3115155290559027E-37
-0.5                      -0.09975788458822012     17.941284403669723       6.557577645286059E-44
-0.5                      -0.09975788458821956     17.711926605504587       6.557577645279763E-56
-0.5                      -0.30020176284315087     18.022935779816514       6.5575776452795E-44
-0.4999999999999999       -0.4999999999999999      17.88990825688073        1.3116466806089742E-96
-0.5                      -0.3002017628431505      17.793577981651374       6.557577645279395E-29
-0.5                      -0.5                     17.6605504587156         1.3115155290558777E-28
-0.5                      -0.3002017628431496      17.564220183486242       6.557577645279389E-29
-0.4999999999999999       -0.4999999999999999      17.43119266055046        1.3115168405716684E-129
-0.5                      -0.30020176284315014     17.334862385321106       6.557577645279832E-61
-0.4999999999999999       -0.4999999999999999      17.20183486238532        1.3115155290559665E-60
-0.5                      0.5                      17.6605504587156         1.324630684359715E-93
-0.5                      0.1006617821255329       17.629724770642202       6.557577645279692E-58
-0.5                      0.30100881421574943      17.54587155963303        6.623153422454989E-94
-0.5                      -0.3002017628431499      17.105504587155963       6.557577645279832E-61
-0.5                      -0.09975788458821956     17.482568807339447       6.557577645279693E-58
-0.5                      0.10066178212553234      17.40036697247707        6.557577645279563E-42
-0.5                      -0.09975788458821977     17.25321100917431        6.557577645279562E-42
-0.5                      0.30100881421574954      17.31651376146789        6.557577645280433E-104
-0.4999999999999999       0.4999999999999999       17.43119266055046        1.3115155290560698E-104
-0.4999999999999999       -0.4999999999999999      16.97247706422019        1.3115155290561126E-119
-0.5                      -0.30020176284315025     16.64678899082569        6.557577645279791E-58
-0.5                      -0.30020176284315014     16.876146788990827       6.5575777108562265E-105
-0.5                      -0.5                     16.743119266055047       1.3115155290560902E-104
-0.5                      -0.09975788458821977     17.02385321100918        6.623153421732859E-84
-0.5                      -0.09975788458821977     16.794495412844036       6.55757764527947E-42
-0.4999999999999999       0.4999999999999999       17.20183486238532        1.3115155290561235E-123
-0.5                      0.10066178212553258      17.171009174311923       6.557577645279562E-42
-0.5                      0.10066178212553267      16.941651376146787       6.55757764527947E-42
-0.5                      0.30100881421575226      17.087155963302752       6.55757764527992E-67
-0.4999999999999999       0.4999999999999999       16.97247706422019        1.3115155421712752E-115
-0.5                      0.3010088142157503       16.857798165137616       6.557577645279815E-67
-0.5                      0.10066178212553267      16.71229357798165        6.55757764527947E-42
-0.5                      -0.09975788458821966     16.5651376146789         6.557577645280446E-58
-0.5                      0.3010088142157513       16.628440366972473       6.557577645279815E-67
-0.5                      0.10066178212553278      16.48293577981651        6.557577645279653E-55
-0.5                      0.5                      16.743119266055047       1.31151552905612E-115
-0.5                      0.5                      16.51376146788991        1.3115155290560455E-95
-0.5                      -0.5                     16.51376146788991        1.3115155290574018E-104
-0.5                      -0.30020176284315003     16.41743119266055        6.557577645935688E-75
-0.5                      -0.5                     16.284403669724774       1.3115168405715235E-70
-0.5                      -0.09975788458821963     16.335779816513764       6.557577645345229E-55
-0.5                      -0.3002017628431498      16.188073394495415       6.557643228335265E-66
-0.5                      -0.5                     16.055045871559635       1.311516841883039E-70
-0.5                      -0.30020176284315037     15.958715596330276       6.557577645279738E-61
-0.5                      0.3010088142157513       16.39908256880734        6.557577645345463E-72
-0.5                      0.10066178212553258      16.253577981651375       6.557577645279653E-55
-0.5                      -0.09975788458821988     16.106422018348624       6.55764322105619E-61
-0.5                      0.10066178212553223      16.024220183486236       6.557577645279349E-30
-0.5                      0.30100881421575054      16.1697247706422         6.55757764527946E-38
-0.5                      0.30100881421574965      15.940366972477065       6.557577710855126E-30
-0.5                      0.5                      16.284403669724774       1.3115155290560455E-95
-0.5                      0.5                      16.055045871559635       1.311515529055892E-37
-0.5                      -0.5                     15.825688073394494       1.3115286573264554E-79
-0.5                      -0.3002017628431506      15.729357798165141       6.55758420292307E-62
-0.5                      -0.09975788458822012     15.877064220183486       6.557577645279732E-61
-0.5                      -0.09975788458821977     15.647706422018349       6.558239960687596E-62
-0.4999999999999999       -0.4999999999999999      15.59633027522936        1.311515529056028E-84
-0.5                      -0.30020176284315014     15.500000000000004       6.557577645279081E-11
-0.5                      0.5                      15.825688073394494       1.3115286442112317E-58
-0.5                      0.10066178212553258      15.794862385321101       6.557577645279349E-30
-0.5                      0.30100881421575215      15.711009174311924       6.557577645279706E-59
-0.5                      0.100661782125533        15.565504587155965       6.557577645279826E-64
-0.5                      -0.09975788458821956     15.418348623853213       6.557577645279081E-11
-0.5                      0.30100881421575215      15.481651376146793       6.557577645936123E-89
-0.5                      0.1006617821255329       15.33614678899083        6.558233403044303E-60
-0.5                      0.30100881421575054      15.252293577981654       6.557577645279769E-60
-0.4999999999999999       0.4999999999999999       15.59633027522936        1.3115155290559413E-58
-0.5000000000000001       0.5000000000000001       15.366972477064223       1.3115155290560716E-88
-0.5000000000000001       -0.5000000000000001      15.366972477064223       1.3115155290559164E-41
-0.5                      -0.30020176284315014     15.270642201834866       6.557577645279081E-11
-0.4999999999999999       -0.4999999999999999      15.137614678899086       1.3115155290559031E-41
-0.5                      -0.09975788458821956     15.188990825688077       6.557577645279053E-9
-0.5                      -0.30020176284315003     15.04128440366973        6.557577645279053E-9
-0.5                      -0.5                     14.90825688073395        1.3115155290559766E-67
-0.5                      -0.30020176284315003     14.811926605504592       6.557577645279473E-39
-0.5                      -0.09975788458821966     14.959633027522939       6.557577645279053E-9
-0.5                      -0.09975788458821977     14.730275229357801       6.557577645279473E-39
-0.4999999999999999       0.4999999999999999       15.137614678899086       1.3115155290560573E-96
-0.5                      0.10066178212553278      15.106788990825692       6.55757764527984E-60
-0.5                      0.10066178212553258      14.877431192660554       6.557577645279221E-21
-0.5                      0.3010088142157513       15.022935779816518       6.564135222925526E-94
-0.5                      0.30100881421575043      14.79357798165138        6.558233403043693E-17
-0.5                      0.10066178212553234      14.648073394495414       6.557577645279221E-21
-0.5                      0.30100881421575054      14.564220183486242       6.557577645279709E-56
-0.5                      0.10066178212553234      14.418715596330278       6.5575776452791384E-15
-0.5                      0.5                      14.90825688073395        1.311515529055833E-16
-0.5                      0.5                      14.678899082568812       1.311515529055833E-16
-0.5                      0.5                      14.449541284403672       1.3115155290690268E-44
-0.5                      -0.5                     14.678899082568812       1.3115168405714296E-40
-0.5                      -0.09975788458821991     14.500917431192661       6.557577645279685E-54
-0.5                      -0.30020176284315003     14.582568807339452       6.557584202857148E-41
-0.5                      -0.30020176284315037     14.353211009174315       6.557577645279E-5
-0.5                      -0.5                     14.449541284403672       1.311646680739946E-36
-0.5                      -0.5                     14.220183486238533       1.324630684346358E-4
-0.5                      -0.30020176284315037     14.123853211009179       6.62315342173179E-5
-0.5                      -0.5                     13.990825688073397       1.3115155290558057E-6
-0.5                      0.5                      14.220183486238533       1.3116466819335783E-40
-0.5                      0.30100881421575043      14.334862385321102       6.5575776452791384E-15
-0.5                      -0.09975788458821999     14.271559633027525       6.557584202857246E-48
-0.5                      -0.09975788458821985     14.042201834862386       6.55757765183761E-32
-0.5                      0.10066178212553245      14.18935779816514        6.5575776452791384E-15
-0.5                      -0.30020176284315014     13.894495412844039       6.564135222925311E-32
-0.5                      -0.09975788458821977     13.81284403669725        6.557577645279097E-12
-0.5                      0.3010088142157513       14.105504587155965       6.564135222931364E-38
-0.5                      0.5                      13.990825688073397       1.3248929874522966E-49
-0.5                      0.10066178212553267      13.960000000000004       6.56413522292474E-38
-0.5                      0.3010088142157513       13.876146788990829       7.213991167637591E-43
-0.5                      0.10066178212553267      13.730642201834865       6.557577645279097E-12
-0.5                      0.5                      13.761467889908259       1.3115155290558302E-15
-0.5                      -0.5                     13.761467889908259       1.3115155290558839E-34
-0.5                      -0.30020176284315025     13.665137614678903       6.557577645279419E-35