% Model:              Cav_Hex_Unif_flux_v5.1.2 - Wall Distn.mph
% Version:            COMSOL 5.5.0.359
% Date:               May 16 2022, 16:43
% Dimension:          3
% Nodes:              1336
% Expressions:        1
% Description:        Surface
% x                       y                        z                        Color
-0.09999999999999996      -0.5                     25                       2.0906714203633935E-158
0.09999999999999998       -0.5                     25                       0
-0.002333654667216245     -0.5                     24.827275042433737       1.802848375566337E-122
0.15583266574925767       -0.5                     24.800547314462463       2.1634180506796042E-122
0.07423961492809228       -0.5                     24.665548796588457       1.802848375566337E-122
-0.15526738994042688      -0.5                     24.806432189614757       1.0270960267322802E-131
-0.08905723034895041      -0.5                     24.69507632821304        1.0270960267322802E-131
0.3                       -0.5000000000000001      25.000000000000004       0
0.3064266791152874        -0.5                     24.871321035059168       0
0.2831192577147499        -0.5                     24.65696444190931        0
0.5                       -0.5                     25                       0
-0.30000000000000004      -0.5                     25                       7.25323014745295E-144
-0.3056604652107924       -0.5                     24.872713706582054       2.4177433824843165E-144
-0.2786954013243277       -0.5                     24.65920784804271        2.427453506333863E-69
-0.5                      -0.5                     25                       7.25323014745295E-144
0.1397464451474957        -0.5                     24.52118840190945        0
0.30598256131349244       -0.5                     24.430797541212538       0
-0.0832293207408733       -0.5                     24.516917764385525       3.3594431246529284E-73
-0.3010088142157503       -0.5                     24.426605504587158       2.8320290907228403E-69
0.5                       -0.5                     24.770642201834864       0
0.5                       -0.5                     24.541284403669728       0
0.5                       -0.5                     24.31192660550459        0
-0.5                      -0.5                     24.770642201834864       0
-0.5                      -0.5                     24.541284403669728       5.663274311383262E-69
-0.5                      -0.5                     24.31192660550459        0
0.11005372607298478       -0.5                     24.340929827482913       8.292859801921106E-147
0.3029759389457244        -0.5                     24.21249156679923        1.2619124350645649E-65
-0.09548845746265988      -0.5                     24.275997848150404       1.6883731894210424E-70
0.10167562101216455       -0.5                     24.125628977363363       1.688647543942889E-70
-0.30100881421575076      -0.5                     24.19724770642202        7.749836187291434E-95
-0.09941314268873393      -0.5                     24.048657308661454       1.9718112595120516E-70
0.10027927016869409       -0.5                     23.89861400387249        4.04803031740325E-68
0.5                       -0.5                     24.082568807339452       2.5238248701291297E-65
-0.5                      -0.5                     24.082568807339452       0
0.30053688752608054       -0.5                     23.985676243263974       1.2659576310012671E-65
0.5                       -0.5                     23.853211009174313       0
0.30025761975987353       -0.5                     23.756786955412203       4.04519593670234E-68
0.10004654502811541       -0.5                     23.669646676486394       4.911942590371446E-62
0.3002110891466807        -0.5                     23.527506923673975       4.911942590371446E-62
-0.30100881421575076      -0.5                     23.967889908256883       7.749836187291413E-95
-0.1003171163817339       -0.5                     23.819942443961196       2.8316371556916233E-71
-0.10051432369201652      -0.5                     23.59076989552934        3.4383598132600423E-64
-0.30100881421575076      -0.5                     23.738532110091743       3.4383598132600423E-64
0.3002034181315324        -0.5                     23.298160174828062       1.7388930916107405E-49
0.10000775750468541       -0.5                     23.440353956784428       1.7388930916112317E-49
-0.10055494908174922      -0.5                     23.361455988012388       1.1071194553273035E-84
0.10000129291744783       -0.5                     23.211007005029824       1.738952735643783E-49
0.5                       -0.5                     23.394495412844037       5.487090436933188E-76
0.5                       -0.5                     23.623853211009177       3.605697376600269E-104
-0.5                      -0.5                     23.853211009174313       0
-0.3010088142157513       -0.5                     23.50917431192661        3.4383598132600423E-64
-0.3010088142157503       -0.5                     23.27981651376147        1.107119461709627E-84
-0.5                      -0.5                     23.623853211009177       0
0.5                       -0.5                     23.1651376146789         5.487090436933188E-76
0.30020264415131037       -0.5                     23.068792747704602       5.964403304224983E-54
0.10000021548624224       -0.5                     22.981651014599773       6.0823390458198E-54
0.3002055422884218        -0.5                     22.83936452164389        7.01706084338774E-61
-0.10056301289748526      -0.5                     23.132107674237385       1.1793574159481641E-55
-0.10056457235301663      -0.5                     22.902751818350957       2.4841335234593682E-48
-0.3010088142157493       -0.5                     23.050458715596328       6.382323343190501E-93
0.5                       -0.5                     22.935779816513758       0
-0.5                      -0.5                     23.394495412844037       9.868340336670541E-139
-0.5                      -0.5                     23.1651376146789         1.2764646686381003E-92
-0.30100881421575376      -0.5                     22.821100917431195       4.1750823129575336E-55
-0.10056486817664556      -0.5                     22.67339440415677        2.4841334055236268E-48
-0.3010088142157498       -0.5                     22.59174311926606        2.1891369067144407E-114
-0.5                      -0.5                     22.935779816513758       0
0.10000003591437294       -0.5                     22.752293517723814       2.484132988016097E-48
0.5                       -0.5                     22.70642201834863        0
0.10000000598572845       -0.5                     22.52293576977354        5.425958033943211E-95
0.3002241881141662        -0.5                     22.609582047081076       7.01706084338774E-61
-0.10056761349522647      -0.5                     22.444097841870477       2.331974958109728E-68
-0.3010088142157492       -0.5                     22.362385321100913       3.438359813259955E-52
0.30039381302595153       -0.5                     22.38733429633982        1.920481652926668E-88
0.09982439311623459       -0.5                     22.29757050374126        5.964403304224951E-52
-0.10064758346517733      -0.5                     22.216557933184315       2.331974958109728E-68
0.30022418132479733       -0.5                     22.150866462142137       5.964403304224951E-52
0.5000000000000001        -0.5000000000000001      22.47706422018349        3.840963305853331E-88
0.5                       -0.5                     22.247706422018346       3.840963305853331E-88
-0.5                      -0.5                     22.70642201834863        0
-0.30100881421575226      -0.5                     22.133027522935777       1.860735669480407E-90
-0.5000000000000001       -0.5000000000000001      22.47706422018349        6.87671962651991E-52
-0.5                      -0.5                     22.247706422018346       6.87671962651991E-52
0.4999999999999999        -0.4999999999999999      22.018348623853214       1.8235209552002741E-97
0.0997733285409016        -0.5                     22.06937365436797        5.964403304224951E-52
-0.3010088142157498       -0.5                     21.90366972477064        2.4068518692819505E-52
-0.10065854384124417      -0.5                     21.987449314564895       2.4068518692819505E-52
0.30020549928908835       -0.5                     21.921933401128467       8.255501911637197E-58
0.09976118511962206       -0.5                     21.840291935515825       9.712515444022188E-68
0.30020238558952833       -0.5                     21.69264639253377        8.255501911637197E-58
0.09975855576771611       -0.5                     21.610993915219595       9.712515444022188E-68
-0.10066109710341098      -0.5                     21.758149563895387       2.4068518692819517E-52
0.3002018666351114        -0.5                     21.463300392637912       7.508255102424701E-53
0.4999999999999999        -0.4999999999999999      21.78899082568807        1.6511003823274394E-57
0.4999999999999999        -0.4999999999999999      21.55963302752293        1.5016510204849402E-52
0.4999999999999999        -0.4999999999999999      21.330275229357795       1.5016510204849402E-52
-0.4999999999999999       -0.4999999999999999      22.018348623853214       1.8235209551973138E-99
-0.4999999999999999       -0.4999999999999999      21.78899082568807        9.518265135141773E-71
-0.3010088142157503       -0.5                     21.6743119266055         4.759132567570886E-71
-0.1006616437369573       -0.5                     21.528804193243175       1.4188993785601895E-99
-0.4999999999999999       -0.4999999999999999      21.55963302752293        6.298459614460967E-92
-0.30100881421575176      -0.5                     21.444954128440365       1.1793574159481503E-53
-0.10066175502436514      -0.5                     21.2994489251522         1.7388930916107688E-45
-0.30100881421575176      -0.5                     21.215596330275226       3.780313016708264E-9
0.09975801663346531       -0.5                     21.38164837414242        5.964437687822994E-50
0.09975790995945577       -0.5                     21.152293001177153       3.548824494187218E-45
0.30020178014196          -0.5                     21.23394456085224        3.548821055827404E-45
0.3002017657263105        -0.5                     21.004587090417225       3.548761411450526E-45
0.4999999999999999        -0.4999999999999999      21.100917431192663       2.688674351312052E-90
0.5000000000000001        -0.5000000000000001      20.871559633027523       3.721471337137325E-98
0.3002017633236808        -0.5                     20.775229346873815       7.017060940512867E-59
-0.1006617769359317       -0.5                     21.070091625136474       1.98730982877212E-45
0.09975788937737959       -0.5                     20.922935670937353       3.4383598834305334E-51
-0.10066178114847535      -0.5                     20.840733922741315       4.045196907953751E-59
-0.4999999999999999       -0.4999999999999999      21.330275229357795       7.560626033416527E-9
-0.3010088142157513       -0.5                     20.986238532110093       5.400447166725991E-8
-0.4999999999999999       -0.4999999999999999      21.100917431192663       1.1556956936793635E-7
0.5000000000000001        -0.5000000000000001      20.642201834862394       7.838700624190266E-83
0.09975788547985023       -0.5                     20.693577961380672       7.017060940512867E-59
0.30020176292323886       -0.5                     20.545871557812305       4.1937048339417984E-83
0.5000000000000001        -0.5000000000000001      20.41284403669725        7.838700633125517E-83
-0.10066178194400233      -0.5                     20.611376142662017       1.2172251641315837E-47
-0.3010088142157523       -0.5                     20.75688073394496        1.2172251641315837E-47
0.09975788475239777       -0.5                     20.46422017975376        4.759132567570889E-68
0.30020176285649813       -0.5                     20.316513761164437       5.54030342452399E-92
0.09975788461817847       -0.5                     20.234862384640014       8.520576148892685E-45
-0.10066178209216259      -0.5                     20.38201834786522        4.759132567570889E-68
-0.3010088142157498       -0.5                     20.52752293577982        1.2272495367609494E-47
0.30020176284537503       -0.5                     20.087155963252176       8.520576148892685E-45
0.09975788459364565       -0.5                     20.005504587032615       1.034625170264743E-38
0.30020176284352096       -0.5                     19.857798165129186       1.034624318207128E-38
-0.3010088142157503       -0.5                     20.298165137614685       1.0024421752836643E-49
-0.5000000000000001       -0.5000000000000001      20.642201834862394       1.3174504139076656E-85
-0.5000000000000001       -0.5000000000000001      20.871559633027523       1.0800894333451982E-7
-0.5000000000000001       -0.5000000000000001      20.41284403669725        2.0048843505673285E-49
0.4999999999999999        -0.4999999999999999      20.18348623853211        8.935252680466684E-92
0.5                       -0.5                     19.954128440366972       1.4550286965638183E-114
0.5                       -0.5                     19.724770642201836       3.7214713371372524E-88
-0.10066178211945154      -0.5                     20.152660550320476       5.6466632000973025E-81
-0.10066178212443244      -0.5                     19.923302752268576       3.0163974291752367E-27
-0.3010088142157503       -0.5                     20.068807339449542       2.1460340596832604E-47
0.0997578845891962        -0.5                     19.776146788968628       3.016397429185583E-27
-0.10066178212533494      -0.5                     19.693944954123946       3.0163974291752367E-27
0.09975788458839444       -0.5                     19.546788990821714       6.798760810815554E-63
0.09975788458825086       -0.5                     19.317431192659846       6.798760810913156E-63
-0.10066178212549727      -0.5                     19.464587155962498       8.794161601094098E-30
0.3002017628432119        -0.5                     19.628440366971077       1.8607356685686285E-88
0.5                       -0.5                     19.4954128440367         1.013931831843004E-42
0.30020176284316047       -0.5                     19.399082568807106       5.06965915921502E-43
0.3002017628431518        -0.5                     19.169724770642162       5.9644033042248275E-46
-0.4999999999999999       -0.4999999999999999      20.18348623853211        9.823885180742792E-55
-0.30100881421575143      -0.5                     19.839449541284402       2.1460340596832604E-47
-0.3010088142157511       -0.5                     19.610091743119266       8.794161601094098E-30
-0.5                      -0.5                     19.954128440366972       4.2920681193665207E-47
-0.30100881421575054      -0.5                     19.38073394495413        8.794161601094098E-30
0.5                       -0.5                     19.26605504587156        1.015124712503849E-42
0.09975788458822533       -0.5                     19.08807339449529        1.1861561767589937E-59
-0.10066178212552634      -0.5                     19.235229357798023       9.760395943025553E-74
-0.3010088142157513       -0.5                     19.151376146788994       1.034624318207134E-36
-0.10066178212553145      -0.5                     19.005871559633004       8.255569927561704E-57
0.09975788458822075       -0.5                     18.858715596330256       1.7947268573661833E-39
0.5                       -0.5                     19.036697247706428       1.1928806608449655E-45
0.3002017628431505        -0.5                     18.940366972477058       1.179357415948178E-59
0.30020176284315003       -0.5                     18.711009174311926       2.045790333349161E-49
0.09975788458821985       -0.5                     18.629357798165135       2.1117041296540623E-29
0.3002017628431499        -0.5                     18.481651376146786       8.794161643049533E-39
-0.5                      -0.5                     19.724770642201836       6.254677548641669E-82
-0.5                      -0.5                     19.4954128440367         5.8451152381404216E-46
-0.5                      -0.5                     19.26605504587156        1.3597521621631036E-67
-0.5                      -0.5                     19.036697247706428       2.069248636414268E-36
0.5                       -0.5                     18.807339449541285       9.665842722359858E-96
0.5                       -0.5                     18.57798165137615        8.391080432581761E-47
-0.10066178212553234      -0.5                     18.776513761467886       1.4780549334234813E-34
-0.3010088142157503       -0.5                     18.922018348623855       1.034624318207134E-36
-0.30100881421575143      -0.5                     18.69266055045872        1.8606156080234962E-40
-0.10066178212553258      -0.5                     18.547155963302753       2.1117041286125624E-29
-0.3010088142157503       -0.5                     18.46330275229358        4.045196079907513E-58
0.09975788458821988       -0.5                     18.4                     6.353572087181873E-16
-0.10066178212553223      -0.5                     18.317798165137614       1.5254926581323385E-22
0.09975788458822021       -0.5                     18.17064220183486        6.353573612674319E-16
-0.10066178212553212      -0.5                     18.088440366972474       1.5254926581323385E-22
0.09975788458822012       -0.5                     17.941284403669723       5.964403304224983E-51
0.5                       -0.5                     18.34862385321101        8.350164625914777E-47
0.3002017628431499        -0.5                     18.25229357798165        6.353572087181661E-16
0.3002017628431509        -0.5                     18.022935779816514       2.0457903333491425E-52
0.3002017628431505        -0.5                     17.793577981651374       5.964406743009136E-51
0.09975788458821956       -0.5                     17.711926605504587       5.964403304630473E-51
0.3002017628431495        -0.5                     17.56422018348624        3.6627078721757185E-26
-0.3010088142157503       -0.5                     18.233944954128443       3.551683969069572E-41
-0.5                      -0.5                     18.807339449541285       2.434450328255047E-41
-0.5                      -0.5                     18.57798165137615        2.434450328255047E-41
-0.5                      -0.5                     18.34862385321101        5.845115238140477E-44
-0.30100881421574954      -0.5                     18.0045871559633         1.7950817335072898E-37
0.5                       -0.5                     18.119266055045873       4.091580666698285E-52
0.5                       -0.5                     17.6605504587156         6.876759269440167E-57
0.4999999999999999        -0.4999999999999999      17.88990825688073        4.091580667094714E-52
-0.10066178212553278      -0.5                     17.85908256880734        4.806727938456E-66
-0.1006617821255329       -0.5                     17.629724770642202       6.155913120765964E-44
-0.301008814215754        -0.5                     17.775229357798167       6.155913120766489E-44
-0.30100881421574943      -0.5                     17.54587155963303        1.0346243182071816E-30
0.09975788458821956       -0.5                     17.482568807339447       3.6627078721757185E-26
-0.10066178212553234      -0.5                     17.40036697247707        1.03462431820712E-30
0.09975788458821977       -0.5                     17.25321100917431        5.9644033048213165E-43
-0.30100881421574954      -0.5                     17.31651376146789        1.03462431820712E-30
0.4999999999999999        -0.4999999999999999      17.43119266055046        4.669440271424062E-73
0.09975788458821977       -0.5                     17.02385321100918        7.242370227449886E-32
0.30020176284315003       -0.5                     17.105504587155963       5.966449095154665E-43
0.30020176284315014       -0.5                     17.334862385321106       3.6627078721757185E-26
0.30020176284315025       -0.5                     16.876146788990827       2.0457910418539937E-46
0.09975788458821977       -0.5                     16.794495412844036       8.520576148899664E-41
0.30020176284315014       -0.5                     16.64678899082569        8.520576148999908E-41
-0.5                      -0.5                     18.119266055045873       3.5894542992438135E-37
-0.4999999999999999       -0.4999999999999999      17.88990825688073        3.58945371473229E-37
-0.5                      -0.5                     17.6605504587156         1.0511557143394963E-56
-0.4999999999999999       -0.4999999999999999      17.43119266055046        1.4034121686775703E-64
-0.4999999999999999       -0.4999999999999999      17.20183486238532        1.359847344814446E-64
0.4999999999999999        -0.4999999999999999      16.97247706422019        1.359752162163085E-54
0.4999999999999999        -0.4999999999999999      17.20183486238532        2.6886743140973157E-85
0.5                       -0.5                     16.743119266055047       1.359752238941187E-54
0.5                       -0.5                     16.51376146788991        2.0048756824812317E-51
-0.10066178212553258      -0.5                     17.171009174311923       7.242370227449865E-32
-0.30100881421575226      -0.5                     17.087155963302752       3.602484622919884E-64
-0.10066178212553267      -0.5                     16.941651376146787       7.242370227449865E-32
-0.3010088142157503       -0.5                     16.857798165137616       5.964403304224799E-43
-0.10066178212553267      -0.5                     16.71229357798165        1.0352625093606925E-39
0.09975788458821966       -0.5                     16.5651376146789         3.016509412183233E-35
-0.1006617821255329       -0.5                     16.48293577981651        1.03466606903027E-39
0.30020176284315003       -0.5                     16.41743119266055        3.1132503227189885E-19
0.09975788458821963       -0.5                     16.335779816513764       3.113325071859237E-19
0.5                       -0.5                     16.284403669724774       8.203830071396547E-55
0.3002017628431498        -0.5                     16.188073394495415       3.1132503227189885E-19
-0.30100881421575143      -0.5                     16.628440366972477       6.353572087181654E-15
-0.3010088142157513       -0.5                     16.39908256880734        6.353572087181654E-15
-0.5                      -0.5                     16.743119266055047       1.651100382327449E-57
-0.4999999999999999       -0.4999999999999999      16.97247706422019        1.6511005183128497E-57
0.5                       -0.5                     16.055045871559635       2.0692486364142716E-37
0.30020176284315037       -0.5                     15.958715596330276       3.1461025186298296E-37
-0.10066178212553258      -0.5                     16.253577981651375       7.4749140249209E-24
-0.30100881421575054      -0.5                     16.1697247706422         7.242370227449797E-35
0.09975788458821988       -0.5                     16.106422018348624       7.474914024848687E-24
-0.10066178212553223      -0.5                     16.024220183486236       1.739718641802293E-55
0.09975788458822012       -0.5                     15.877064220183486       2.1114782004226936E-37
-0.10066178212553258      -0.5                     15.794862385321101       8.521191883410729E-42
0.09975788458821977       -0.5                     15.647706422018349       1.7388938289259943E-39
0.3002017628431506        -0.5                     15.729357798165141       7.24237144468954E-40
0.30020176284315014       -0.5                     15.500000000000004       1.034624390630832E-32
-0.5                      -0.5                     16.51376146788991        1.2707144174363308E-14
-0.5                      -0.5                     16.284403669724774       9.222152897353754E-91
-0.30100881421574965      -0.5                     15.940366972477065       8.520576293069412E-42
-0.5                      -0.5                     16.055045871559635       1.6511003823274875E-65
0.5                       -0.5                     15.825688073394494       1.6511003823274498E-64
0.4999999999999999        -0.4999999999999999      15.59633027522936        1.4484740454899975E-39
-0.30100881421575215      -0.5                     15.711009174311924       7.379995844026078E-37
-0.100661782125533        -0.5                     15.565504587155965       1.3911437604239019E-38
0.09975788458821956       -0.5                     15.418348623853213       1.7388930916107288E-39
0.09975788458821956       -0.5                     15.188990825688078       1.1021320748420428E-5
-0.1006617821255329       -0.5                     15.33614678899083        1.1021320748420428E-5
0.5000000000000001        -0.5000000000000001      15.366972477064223       2.0692486364142348E-32
0.30020176284315014       -0.5                     15.270642201834866       1.0346243182071178E-32
0.30020176284315003       -0.5                     15.04128440366973        1.334450494898163E-10
0.09975788458821966       -0.5                     14.959633027522939       1.525492746073946E-23
-0.30100881421575215      -0.5                     15.481651376146793       7.379910638141424E-37
-0.5                      -0.5                     15.825688073394494       2.4346445785886746E-47
-0.4999999999999999       -0.4999999999999999      15.59633027522936        1.4516370398585554E-36
0.4999999999999999        -0.4999999999999999      15.137614678899086       2.593294729461856E-10
0.5                       -0.5                     14.90825688073395        7.961339213187562E-10
-0.10066178212553258      -0.5                     14.877431192660554       4.210570841790076E-42
-0.10066178212553278      -0.5                     15.106788990825692       1.1021320748420432E-5
-0.30100881421575054      -0.5                     15.252293577981654       1.5254926581323239E-21
-0.30100881421575143      -0.5                     15.022935779816518       1.5254926632020012E-21
0.09975788458821977       -0.5                     14.730275229357801       7.714924523894314E-7
-0.10066178212553234      -0.5                     14.648073394495414       1.7947269192208652E-27
0.09975788458821991       -0.5                     14.500917431192661       7.714924523894314E-7
0.30020176284315014       -0.5                     14.582568807339452       7.752727654061397E-7
0.30020176284315003       -0.5                     14.811926605504592       4.048715240894519E-9
0.5                       -0.5                     14.678899082568812       8.08986985575562E-9
-0.10066178212553234      -0.5                     14.418715596330278       1.0346243182071042E-26
0.30020176284315025       -0.5                     14.353211009174313       6.170693642058116E-32
0.09975788458821991       -0.5                     14.271559633027525       1.0346248254606753E-26
-0.10066178212553258      -0.5                     14.18935779816514        1.1871740903883933E-26
0.30020176284315037       -0.5                     14.123853211009179       4.2358077010845186E-27
-0.4999999999999999       -0.4999999999999999      15.137614678899086       1.0139318318429697E-29
-0.5000000000000001       -0.5000000000000001      15.366972477064223       2.3130893440366494E-68
-0.30100881421575043      -0.5                     14.79357798165138        1.7947269369942405E-27
-0.30100881421575043      -0.5                     14.564220183486242       3.665839326157178E-22
-0.5                      -0.5                     14.90825688073395        1.0139354212966845E-29
0.5                       -0.5                     14.449541284403672       1.2311826241531696E-31
0.5                       -0.5                     14.220183486238533       8.471615106562088E-27
-0.30100881421575043      -0.5                     14.334862385321102       3.2137530909034007E-4
-0.3010088142157513       -0.5                     14.105504587155965       3.213213046186728E-4
-0.10066178212553278      -0.5                     13.960000000000004       3.637170248431813E-23
0.5                       -0.5                     13.990825688073397       8.471615106563281E-27
0.09975788458821977       -0.5                     14.04220183486239        2.1792753109950196E-25
0.30020176284315014       -0.5                     13.894495412844039       9.7118887640144E-16
0.09975788458821977       -0.5                     13.81284403669725        1.5744743926314963E-7
-0.10066178212553267      -0.5                     13.730642201834865       1.5744743926314966E-7
0.30020176284315014       -0.5                     13.665137614678903       1.306699532660704E-12
0.09975788458821977       -0.5                     13.583486238532116       1.582202283629038E-7
-0.10066178212553267      -0.5                     13.501284403669727       7.714924524962341E-10
0.30020176284315025       -0.5                     13.435779816513765       1.2966473647309429E-12
-0.5                      -0.5                     14.678899082568812       5.127791021046076E-29
-0.5                      -0.5                     14.449541284403672       1.0800894333452142E-7
-0.5                      -0.5                     14.220183486238533       6.427506181806801E-4
-0.5                      -0.5                     13.990825688073397       2.3587148318962765E-45
-0.3010088142157513       -0.5                     13.876146788990829       3.1137737210530786E-23