% Model:              Cav_Hex_Unif_flux_v5.2.1 - Lin. Distn.mph
% Version:            COMSOL 5.5.0.359
% Date:               Apr 1 2022, 15:29
% Dimension:          3
% Nodes:              25642
% Expressions:        1
% Description:        Surface
% x                       y                        z                        Color
-4                        3.0756368736413178       0.8858116275455409       0.0049748820859657344
-4                        2.666666666666668        0                        0.0049748820859657344
-4                        4                        0                        0.004974882085965734
-4                        3.0756368736413178       0.8858116275455409       0.010977906469697752
-4                        4                        0                        0.010977906469697752
-4                        4                        1.3207547169811316       0.010977906469697752
-4                        -3.1088636201221496      0.9170471195496078       0.008291470143276221
-4                        -4                       0                        0.008291470143276221
-4                        -2.6666666666666665      0                        0.008291470143276221
-4                        -3.1088636201221496      0.9170471195496078       0.007818856345109503
-4                        -4                       1.3207547169811316       0.007818856345109503
-4                        -4                       0                        0.007818856345109503
-4                        -1.3333333333333326      0                        0.013266352229241954
-4                        -1.9180672603297866      1.2463719746519941       0.013266352229241954
-4                        -2.6666666666666665      0                        0.013266352229241954
-4                        -3.1088636201221496      0.9170471195496078       0.013266352229241956
-4                        0.6666666666666679       1.1471949848797958       0.01077891118625909
-4                        7.91033905045424E-16     0                        0.01077891118625909
-3.999999999999999        1.3333333333333344       0                        0.01077891118625909
-4                        1.9771354056323476       1.0321587346188377       0.011608058200586711
-3.999999999999999        1.3333333333333344       0                        0.011608058200586711
-4                        2.666666666666668        0                        0.011608058200586711
-4                        1.9771354056323476       1.0321587346188377       0.009949764171931464
-4                        0.6666666666666679       1.1471949848797958       0.009949764171931465
-3.999999999999999        1.3333333333333344       0                        0.009949764171931464
-4                        1.9771354056323476       1.0321587346188377       0.004974882085965735
-4                        3.0756368736413178       0.8858116275455409       0.006318100249176496
-4                        4                        1.3207547169811316       0.006318100249176496
-4                        2.74807425477115         2.070634330982535        0.006318100249176496
-4                        3.0756368736413178       0.8858116275455409       0.009120617157603846
-4                        2.74807425477115         2.070634330982535        0.009120617157603846
-4                        1.9771354056323476       1.0321587346188377       0.009120617157603846
-4                        1.3724346387149515       2.0893114643051325       0.013266352229241954
-4                        0.6666666666666679       1.1471949848797958       0.013266352229241954
-4                        1.9771354056323476       1.0321587346188377       0.013266352229241954
-4                        1.3724346387149515       2.0893114643051325       0.009120617157603848
-4                        4                        2.641509433962263        0.007818856345109503
-4                        2.74807425477115         2.070634330982535        0.007818856345109503
-4                        4                        1.3207547169811316       0.007818856345109503
-4                        -2.9595841736142967      2.0181089061148128       0.009634688306486987
-4                        -4                       2.641509433962263        0.009634688306486987
-4                        -4                       1.3207547169811316       0.009634688306486987
-4                        -3.1088636201221496      0.9170471195496078       0.010778911186259085
-4                        -2.9595841736142967      2.0181089061148128       0.010778911186259085
-4                        -4                       1.3207547169811316       0.010778911186259083
-4                        -1.9180672603297866      1.2463719746519941       0.010778911186259087
-4                        -2.9595841736142967      2.0181089061148128       0.01145052026786447
-4                        -2.8566177055771282      3.301886792452835        0.01145052026786447
-4                        -4                       2.641509433962263        0.01145052026786447
-4                        -2.8566177055771282      3.301886792452835        0.008133932210553986
-4                        -2.9595841736142967      2.0181089061148128       0.008133932210553986
-4                        -1.8460252457366         2.684154415108442        0.008133932210553986
-4                        -2.9595841736142967      2.0181089061148128       0.014095499243569579
-4                        -1.9180672603297866      1.2463719746519941       0.014095499243569579
-4                        -1.8460252457366         2.684154415108442        0.014095499243569579
-4                        7.91033905045424E-16     0                        0.012437205214914338
-4                        -0.5690622958544598      1.114039816630297        0.012437205214914338
-4                        -1.3333333333333326      0                        0.012437205214914338
-4                        -0.5690622958544598      1.114039816630297        0.013266352229241952
-4                        -0.5690622958544598      1.114039816630297        0.009949764171931465
-4                        7.91033905045424E-16     0                        0.009949764171931465
-4                        -0.9563114536899846      2.118260507855674        0.015753793272224825
-4                        -1.9180672603297866      1.2463719746519941       0.015753793272224825
-4                        -0.5690622958544598      1.114039816630297        0.015753793272224825
-4                        -0.9563114536899846      2.118260507855674        0.009949764171931467
-4                        -1.8460252457366         2.684154415108442        0.009949764171931467
-4                        -1.9180672603297866      1.2463719746519941       0.009949764171931467
-4                        -2.8566177055771282      3.301886792452835        0.0089630792248816
-3.999999999999999        -3.999999999999999       3.962264150943393        0.0089630792248816
-4                        -4                       2.641509433962263        0.0089630792248816
-4                        -2.8566177055771247      4.622641509433967        0.012636200498352996
-4                        -4                       5.283018867924526        0.012636200498352996
-3.999999999999999        -3.999999999999999       3.962264150943393        0.012636200498352996
-3.999999999999999        -3.999999999999999       3.962264150943393        0.010463835320814604
-4                        -2.8566177055771282      3.301886792452835        0.010463835320814604
-4                        -2.8566177055771247      4.622641509433967        0.010463835320814604
-4                        0.12667160555967705      2.1724114323943278       0.009949764171931465
-4                        -0.9563114536899846      2.118260507855674        0.010778911186259092
-4                        -0.5690622958544598      1.114039816630297        0.010778911186259092
-4                        0.12667160555967705      2.1724114323943278       0.010778911186259092
-4                        0.6666666666666679       1.1471949848797958       0.00663317611462098
-4                        1.3724346387149515       2.0893114643051325       0.00663317611462098
-4                        0.12667160555967705      2.1724114323943278       0.00663317611462098
-4                        2.858679630687793        3.367790278810423        0.01097790646969775
-4                        2.74807425477115         2.070634330982535        0.01097790646969775
-4                        4                        2.641509433962263        0.01097790646969775
-4                        1.3724346387149515       2.0893114643051325       0.008291470143276223
-4                        0.8613816455781365       3.243524456383373        0.008291470143276223
-4                        0.12667160555967705      2.1724114323943278       0.008291470143276223
-4                        1.855548908833212        3.0117567294139396       0.009120617157603846
-4                        2.858679630687793        3.367790278810423        0.009120617157603842
-4                        1.855548908833212        3.0117567294139396       0.013266352229241956
-4                        0.8613816455781365       3.243524456383373        0.013266352229241956
-3.999999999999999        3.999999999999999        3.962264150943393        0.007976394277831741
-4                        2.858679630687793        3.367790278810423        0.007976394277831741
-4                        4                        2.641509433962263        0.007976394277831741
-4                        2.858679630687793        3.367790278810423        0.009949764171931464
-3.999999999999999        3.999999999999999        3.962264150943393        0.009949764171931464
-4                        2.8566177055771256       4.622641509433967        0.009949764171931464
-4                        2.8566177055771256       4.622641509433967        0.009991221522647893
-3.999999999999999        3.999999999999999        3.962264150943393        0.009991221522647893
-4                        4                        5.283018867924526        0.009991221522647893
-4                        -2.8566177055771247      4.622641509433967        0.010778911186259085
-4                        -2.8566177055771282      3.301886792452835        0.010778911186259085
-4                        -1.741451482210495       4.041994869870936        0.010778911186259085
-4                        -2.8566177055771282      3.301886792452835        0.015753793272224825
-4                        -1.8460252457366         2.684154415108442        0.015753793272224825
-4                        -1.741451482210495       4.041994869870936        0.01575379327222482
-4                        -1.741451482210495       4.041994869870936        0.006633176114620976
-4                        -1.8460252457366         2.684154415108442        0.006633176114620976
-4                        -0.5748349442441488      3.3741970039313123       0.006633176114620976
-4                        -0.9563114536899846      2.118260507855674        0.005804029100293355
-4                        0.12667160555967705      2.1724114323943278       0.005804029100293355
-4                        -0.5748349442441488      3.3741970039313123       0.005804029100293355
-4                        0.12667160555967705      2.1724114323943278       0.009120617157603848
-4                        0.8613816455781365       3.243524456383373        0.009120617157603848
-4                        -0.5748349442441488      3.3741970039313123       0.009120617157603848
-4                        -0.9563114536899846      2.118260507855674        0.01243720521491433
-4                        -0.5748349442441488      3.3741970039313123       0.01243720521491433
-4                        -1.8460252457366         2.684154415108442        0.01243720521491433
-4                        -4                       5.283018867924526        0.0122796672821921
-4                        -2.8566177055771247      4.622641509433967        0.0122796672821921
-4                        -2.856617705577126       5.943396226415098        0.0122796672821921
-4                        -2.856617705577126       5.943396226415098        0.00714724726350412
-4.000000000000001        -4.000000000000001       6.603773584905658        0.007147247263504124
-4                        -4                       5.283018867924526        0.007147247263504124
-4                        -2.856617705577126       5.943396226415098        0.013622885445402862
-4                        -2.8566177055771247      4.622641509433967        0.013622885445402862
-4                        -1.7138639367131778      5.373077799375469        0.013622885445402862
-4                        -1.7138639367131778      5.373077799375469        0.006475638181898736
-4                        -1.7139283351676913      6.724443784172662        0.006475638181898736
-4                        -2.856617705577126       5.943396226415098        0.006475638181898736
-4                        -1.741451482210495       4.041994869870936        0.010621373253536848
-4                        -1.7138639367131778      5.373077799375469        0.010621373253536848
-4                        -2.8566177055771247      4.622641509433967        0.010621373253536848
-4                        2.8566177055771287       7.26415094339623         0.011176901753136412
-4.000000000000001        4.000000000000001        6.603773584905658        0.011176901753136412
-4                        4                        7.92452830188679         0.011176901753136412
-4                        -1.7138639367131778      5.373077799375469        0.009949764171931467
-4                        -1.741451482210495       4.041994869870936        0.009949764171931467
-4                        -0.5721538457008863      4.898844154743287        0.009949764171931467
-4                        -0.5748349442441488      3.3741970039313123       0.01575379327222482
-4                        -0.5721538457008863      4.898844154743287        0.01575379327222482
-4                        -0.5721538457008863      4.898844154743287        0.014095499243569573
-4                        -0.5748349442441488      3.3741970039313123       0.014095499243569573
-4                        0.6089274018256116       4.446436432515655        0.014095499243569573
-4                        0.8613816455781365       3.243524456383373        0.01077891118625909
-4                        0.6089274018256116       4.446436432515655        0.010778911186259087
-4                        -0.5748349442441488      3.3741970039313123       0.01077891118625909
-4                        1.7799402870170535       3.9959986334171083       0.012437205214914331
-4                        2.858679630687793        3.367790278810423        0.012437205214914331
-4                        2.8566177055771256       4.622641509433967        0.012437205214914331
-4                        1.855548908833212        3.0117567294139396       0.006633176114620975
-4                        2.858679630687793        3.367790278810423        0.006633176114620975
-4                        1.7799402870170535       3.9959986334171083       0.006633176114620975
-4                        1.855548908833212        3.0117567294139396       0.008291470143276221
-4                        1.7799402870170535       3.9959986334171083       0.008291470143276221
-4                        0.8613816455781365       3.243524456383373        0.014924646257897202
-4                        1.7799402870170535       3.9959986334171083       0.014924646257897202
-4                        0.6089274018256116       4.446436432515655        0.014924646257897202
-4                        1.7799402870170535       3.9959986334171083       0.012951276363797472
-4                        2.8566177055771256       4.622641509433967        0.012951276363797472
-4                        1.7132354111542476       5.283018867924527        0.012951276363797472
-4                        1.7799402870170535       3.9959986334171083       0.004974882085965732
-4                        1.7132354111542476       5.283018867924527        0.004974882085965732
-4                        0.6089274018256116       4.446436432515655        0.004974882085965732
-4                        2.856617705577126        5.943396226415098        0.010977906469697757
-4                        4                        5.283018867924526        0.010977906469697757
-4.000000000000001        4.000000000000001        6.603773584905658        0.010977906469697757
-4                        4                        5.283018867924526        0.010778911186259094
-4                        2.856617705577126        5.943396226415098        0.010778911186259094
-4                        2.8566177055771256       4.622641509433967        0.010778911186259094
-4.000000000000001        4.000000000000001        6.603773584905658        0.005331415302126636
-4                        2.8566177055771287       7.26415094339623         0.005331415302126636
-4                        2.856617705577126        5.943396226415098        0.005331415302126636
-4                        1.7132354111542476       5.283018867924527        0.011450520267864474
-4                        2.8566177055771256       4.622641509433967        0.011450520267864474
-4                        2.856617705577126        5.943396226415098        0.011450520267864474
-4                        1.713235411154255        6.6037735849056585       0.009634688306486984
-4                        2.856617705577126        5.943396226415098        0.009634688306486984
-4                        2.8566177055771287       7.26415094339623         0.009634688306486984
-4                        2.856617705577126        5.943396226415098        0.010621373253536853
-4                        1.713235411154255        6.6037735849056585       0.010621373253536853
-4                        1.7132354111542476       5.283018867924527        0.010621373253536853
-4                        -1.7139283351676913      6.724443784172662        0.013266352229241959
-4                        -1.7138639367131778      5.373077799375469        0.013266352229241959
-4                        -0.571323541115424       6.207547169811322        0.013266352229241959
-4                        -0.5721538457008863      4.898844154743287        0.00829147014327622
-4                        -0.571323541115424       6.207547169811322        0.008291470143276221
-4                        -1.7138639367131778      5.373077799375469        0.008291470143276221
-4                        1.7132354111542476       5.283018867924527        0.013937961310847343
-4                        1.713235411154255        6.6037735849056585       0.013937961310847343
-4                        0.5769623256748639       5.78396185888278         0.013937961310847343
-4                        0.5769623256748639       5.78396185888278         0.010778911186259085
-4                        1.7132354111542476       5.283018867924527        0.010778911186259085
-4                        0.6089274018256116       4.446436432515655        0.00829147014327622
-4                        0.5769623256748639       5.78396185888278         0.00829147014327622
-4                        -0.571323541115424       6.207547169811322        0.014924646257897193
-4                        -0.5721538457008863      4.898844154743287        0.014924646257897193
-4                        0.5769623256748639       5.78396185888278         0.014924646257897193
-4.000000000000001        -4.000000000000001       6.603773584905658        0.010463835320814604
-4                        -2.856617705577126       5.943396226415098        0.010463835320814604
-4                        -2.8570911892732935      7.277082839837901        0.010463835320814604
-4                        -2.8570911892732935      7.277082839837901        0.007147247263504116
-4                        -1.7139283351676913      6.724443784172662        0.007147247263504116
-4                        -4                       7.92452830188679         0.010977906469697749
-4.000000000000001        -4.000000000000001       6.603773584905658        0.010977906469697749
-4                        -2.8570911892732935      7.277082839837901        0.010977906469697749
-4                        -0.571323541115424       6.207547169811322        0.012793738431075239
-4                        -0.5713098859410444      7.562470176934943        0.012793738431075239
-4                        -1.7139283351676913      6.724443784172662        0.012793738431075239
-4                        0.5717731970806517       7.1055030771093985       0.011143609600953416
-4                        0.5769623256748639       5.78396185888278         0.011143609600953416
-4                        1.713235411154255        6.6037735849056585       0.011143609600953416
-4                        -0.5713098859410444      7.562470176934943        0.009949764171931464
-4                        -0.571323541115424       6.207547169811322        0.009949764171931464
-4                        0.5717731970806517       7.1055030771093985       0.009949764171931464
-4                        0.5769623256748639       5.78396185888278         0.009120617157603846
-4                        0.5717731970806517       7.1055030771093985       0.009120617157603846
-4                        -0.571323541115424       6.207547169811322        0.009120617157603846
-4                        -2.8566177055771287      8.584905660377363        0.011848510834741794
-3.999999999999999        -3.999999999999999       9.24528301886792         0.011848510834741794
-4                        -4                       7.92452830188679         0.011848510834741794
-4                        -2.8570911892732935      7.277082839837901        0.009477150373764748
-4                        -2.8566177055771287      8.584905660377363        0.009477150373764748
-4                        -4                       7.92452830188679         0.009477150373764748
-4                        -1.7139283351676913      6.724443784172662        0.01030629738809237
-4                        -1.7138235809078703      8.03018867924531         0.01030629738809237
-4                        -2.8570911892732935      7.277082839837901        0.01030629738809237
-4                        -1.7138235809078703      8.03018867924531         0.011807053484025377
-4                        -1.7139283351676913      6.724443784172662        0.011807053484025377
-4                        -0.5713098859410444      7.562470176934943        0.011807053484025377
-4                        -2.8566177055771287      8.584905660377363        0.012122129349469858
-4                        -2.8570911892732935      7.277082839837901        0.012122129349469858
-4                        -1.7138235809078703      8.03018867924531         0.012122129349469858
-4                        -0.5713098859410444      7.562470176934943        0.009792226239209232
-4                        -0.5714653978508812      8.880749473639504        0.009792226239209232
-4                        -1.7138235809078703      8.03018867924531         0.009792226239209232
-4                        2.8566177055771274       8.584905660377363        0.009833683589925651
-4                        4                        7.92452830188679         0.009833683589925651
-3.999999999999999        3.999999999999999        9.24528301886792         0.009833683589925651
-4                        4                        7.92452830188679         0.012636200498352998
-4                        2.8566177055771274       8.584905660377363        0.012636200498352994
-4                        2.8566177055771287       7.26415094339623         0.012636200498352996
-4                        1.7132354111542536       7.924528301886802        0.009477150373764745
-4                        2.8566177055771287       7.26415094339623         0.009477150373764745
-4                        2.8566177055771274       8.584905660377363        0.009477150373764745
-4                        1.7132354111542536       7.924528301886802        0.012636200498352994
-4                        1.713235411154255        6.6037735849056585       0.012636200498352994
-4                        1.7132354111542536       7.924528301886802        0.009634688306486986
-4                        0.5717731970806517       7.1055030771093985       0.009634688306486986
-4                        0.570908342314949        8.426388877631464        0.011135444402419993
-4                        0.5717731970806517       7.1055030771093985       0.011135444402419993
-4                        1.7132354111542536       7.924528301886802        0.011135444402419993
-4                        0.5717731970806517       7.1055030771093985       0.004974882085965732
-4                        0.570908342314949        8.426388877631464        0.004974882085965732
-4                        -0.5713098859410444      7.562470176934943        0.004974882085965732
-4                        -0.5714653978508812      8.880749473639504        0.008963079224881607
-4                        -0.5713098859410444      7.562470176934943        0.008963079224881607
-4                        0.570908342314949        8.426388877631464        0.008963079224881607
-4                        -2.8566177055771274      9.905660377358494        0.012163586700186272
-3.999999999999999        -3.999999999999999       10.56603773584905        0.012163586700186272
-3.999999999999999        -3.999999999999999       9.24528301886792         0.012163586700186272
-3.999999999999999        -3.999999999999999       9.24528301886792         0.00880554129215936
-4                        -2.8566177055771287      8.584905660377363        0.00880554129215936
-4                        -2.8566177055771274      9.905660377358494        0.00880554129215936
-4                        -1.7138235809078703      8.03018867924531         0.014767108325174964
-4                        -1.7138235809078708      9.35094339622642         0.014767108325174964
-4                        -2.8566177055771287      8.584905660377363        0.014767108325174964
-4                        -1.7138235809078708      9.35094339622642         0.015438717406780347
-4                        -1.7138235809078703      8.03018867924531         0.015438717406780347
-4                        -0.5714653978508812      8.880749473639504        0.015438717406780347
-4                        -2.8566177055771274      9.905660377358494        0.01559625533950258
-4                        -2.8566177055771287      8.584905660377363        0.01559625533950258
-4                        -1.7138235809078708      9.35094339622642         0.01559625533950258
-4                        0.570908342314949        8.426388877631464        0.009634688306486987
-4                        0.570764199853998        9.747165441869399        0.009634688306486984
-4                        -0.5714653978508812      8.880749473639504        0.009634688306486987
-4                        2.8566177055771296       9.905660377358494        0.005687948518287534
-3.999999999999999        3.999999999999999        9.24528301886792         0.005687948518287534
-3.999999999999999        3.999999999999999        10.56603773584905        0.005687948518287534
-3.999999999999999        3.999999999999999        9.24528301886792         0.012636200498352991
-4                        2.8566177055771296       9.905660377358494        0.012636200498352991
-4                        1.7132354111542565       9.245283018867923        0.01113544440241999
-4                        2.8566177055771274       8.584905660377363        0.01113544440241999
-4                        2.8566177055771296       9.905660377358494        0.01113544440241999
-4                        2.8566177055771274       8.584905660377363        0.008133932210553979
-4                        1.7132354111542565       9.245283018867923        0.008133932210553979
-4                        1.7132354111542536       7.924528301886802        0.008133932210553979
-4                        1.7132354111542536       7.924528301886802        0.012122129349469856
-4                        1.7132354111542565       9.245283018867923        0.012122129349469856
-4                        0.570908342314949        8.426388877631464        0.012122129349469856
-4                        0.570764199853998        9.747165441869399        0.013465347512680617
-4                        0.570908342314949        8.426388877631464        0.013465347512680617
-4                        1.7132354111542565       9.245283018867923        0.013465347512680617
-4                        -2.8566177055771225      11.226415094339625       0.01082036853697551
-4                        -4                       11.886792452830184       0.01082036853697551
-3.999999999999999        -3.999999999999999       10.56603773584905        0.01082036853697551
-3.999999999999999        -3.999999999999999       10.56603773584905        0.01117690175313641
-4                        -2.8566177055771274      9.905660377358494        0.01117690175313641
-4                        -2.8566177055771225      11.226415094339625       0.01117690175313641
-4                        -0.5714653978508812      8.880749473639504        0.013108814296519722
-4                        -0.5714942263430716      10.201508560072003       0.013108814296519722
-4                        -1.7138235809078708      9.35094339622642         0.013108814296519722
-4                        -0.5714942263430716      10.201508560072003       0.010621373253536853
-4                        -0.5714653978508812      8.880749473639504        0.010621373253536853