% Model:              Cav_Hex_Unif_flux_v5.2.1 - Lin. Distn.mph
% Version:            COMSOL 5.5.0.359
% Date:               Apr 1 2022, 15:29
% Dimension:          3
% Nodes:              23238
% Expressions:        1
% Description:        Surface
% x                       y                        z                        Color
-8                        5.714285714285713        0                        0.024874410429828662
-8                        8                        0                        0.024874410429828662
-8                        6.3996135125531435       1.7090069630076088       0.024874410429828662
-8                        6.3996135125531435       1.7090069630076088       0.029020145501466765
-8                        4.482995757972044        1.9744690261730202       0.029020145501466765
-8                        5.714285714285713        0                        0.029020145501466765
-7.999999999999998        3.4285714285714284       0                        0.03814076265907061
-8                        5.714285714285713        0                        0.03814076265907061
-8                        4.482995757972044        1.9744690261730202       0.03814076265907061
-8                        4.482995757972044        1.9744690261730202       0.024874410429828665
-8                        2.2857142857142865       2.1395157600494485       0.024874410429828665
-7.999999999999998        3.4285714285714284       0                        0.024874410429828665
-8                        6.3996135125531435       1.7090069630076088       0.021085208574351463
-8                        8                        0                        0.021085208574351463
-8.000000000000002        8.000000000000002        2.5641025641025657       0.021085208574351463
-8                        -5.714285714285714       0                        0.03150758654444965
-8                        -5.754801530403203       1.882057893107203        0.03150758654444965
-8                        -8                       0                        0.03150758654444965
-8.000000000000002        -8.000000000000002       2.5641025641025657       0.03154904389516607
-8                        -8                       0                        0.03154904389516607
-8                        -5.754801530403203       1.882057893107203        0.03154904389516607
-8                        -5.714285714285714       0                        0.03731161564474298
-7.999999999999998        -3.428571428571428       0                        0.03731161564474298
-8                        -5.754801530403203       1.882057893107203        0.03731161564474298
-8                        -3.960910170576174       2.524278643727274        0.03233673355877726
-8                        -5.754801530403203       1.882057893107203        0.03233673355877726
-7.999999999999998        -3.428571428571428       0                        0.03233673355877726
-7.999999999999998        1.142857142857142        0                        0.03814076265907062
-8                        2.2857142857142865       2.1395157600494485       0.03814076265907062
-8.000000000000002        -1.1428571428571426      0                        0.03150758654444964
-8                        -2.1043988840981296      2.2255935830128304       0.03150758654444964
-7.999999999999998        -3.428571428571428       0                        0.03150758654444964
-8                        -3.960910170576174       2.524278643727274        0.029020145501466782
-7.999999999999998        -3.428571428571428       0                        0.029020145501466782
-8                        -2.1043988840981296      2.2255935830128304       0.029020145501466782
-8.000000000000002        -1.1428571428571426      0                        0.03482417460176013
-7.999999999999998        1.142857142857142        0                        0.03482417460176013
-8                        0                        2.1395157600494485       0.03482417460176013
-8                        -2.1043988840981296      2.2255935830128304       0.036482468630415384
-8.000000000000002        -1.1428571428571426      0                        0.036482468630415384
-8                        0                        2.1395157600494485       0.036482468630415384
-8                        0                        2.1395157600494485       0.03150758654444964
-7.999999999999998        1.142857142857142        0                        0.03150758654444964
-8                        2.2857142857142865       2.1395157600494485       0.03150758654444964
-7.999999999999998        7.999999999999998        5.12820512820513         0.04055358047076411
-8                        5.800786086990055        4.006463218196776        0.04055358047076411
-8.000000000000002        8.000000000000002        2.5641025641025657       0.04055358047076411
-8                        6.3996135125531435       1.7090069630076088       0.02373018755005657
-8.000000000000002        8.000000000000002        2.5641025641025657       0.02373018755005657
-8                        5.800786086990055        4.006463218196776        0.02373018755005657
-8                        6.3996135125531435       1.7090069630076088       0.024045263415501034
-8                        5.800786086990055        4.006463218196776        0.024045263415501034
-8                        4.482995757972044        1.9744690261730202       0.024045263415501034
-8                        1.0269477883073501       4.034277380186957        0.03316588057310487
-8                        0                        2.1395157600494485       0.03316588057310487
-8                        2.2857142857142865       2.1395157600494485       0.03316588057310487
-8                        2.2857142857142865       2.1395157600494485       0.02321611640117342
-8                        4.482995757972044        1.9744690261730202       0.02321611640117342
-8                        3.2686633564298155       4.160269695150465        0.02321611640117342
-8                        3.2686633564298155       4.160269695150465        0.03731161564474299
-8                        1.0269477883073501       4.034277380186957        0.03731161564474299
-8                        2.2857142857142865       2.1395157600494485       0.03731161564474299
-8                        4.482995757972044        1.9744690261730202       0.036482468630415356
-8                        5.800786086990055        4.006463218196776        0.036482468630415356
-8                        3.2686633564298155       4.160269695150465        0.036482468630415356
-7.999999999999998        -7.999999999999998       5.12820512820513         0.04821489888315135
-8.000000000000002        -8.000000000000002       2.5641025641025657       0.04821489888315135
-8                        -5.448413851057012       4.1075078027358          0.04821489888315135
-8                        -5.448413851057012       4.1075078027358          0.03233673355877726
-8.000000000000002        -8.000000000000002       2.5641025641025657       0.03233673355877726
-8                        -3.960910170576174       2.524278643727274        0.01989952834386293
-8                        -5.448413851057012       4.1075078027358          0.01989952834386293
-8                        -5.754801530403203       1.882057893107203        0.01989952834386293
-8                        -3.960910170576174       2.524278643727274        0.017412087300880067
-8                        -2.1043988840981296      2.2255935830128304       0.017412087300880067
-8                        -3.041207673239231       3.8885163298674867       0.017412087300880067
-8                        -3.960910170576174       2.524278643727274        0.026532704458483904
-8                        -3.041207673239231       3.8885163298674867       0.026532704458483904
-8                        -5.448413851057012       4.1075078027358          0.026532704458483904
-8                        -5.448413851057012       4.1075078027358          0.038654833807953745
-8                        -5.746647837406631       6.703549938354547        0.038654833807953745
-7.999999999999998        -7.999999999999998       5.12820512820513         0.038654833807953745
-8                        -3.6408576312798626      5.745116325733745        0.0339950275874325
-8                        -5.746647837406631       6.703549938354547        0.0339950275874325
-8                        -5.448413851057012       4.1075078027358          0.0339950275874325
-8                        -3.041207673239231       3.8885163298674867       0.030678439530122018
-8                        -3.6408576312798626      5.745116325733745        0.030678439530122018
-8                        -5.448413851057012       4.1075078027358          0.030678439530122018
-8                        -8                       7.692307692307696        0.03660684068256465
-7.999999999999998        -7.999999999999998       5.12820512820513         0.03660684068256465
-8                        -5.746647837406631       6.703549938354547        0.03660684068256465
-8                        4.191857806960433        5.720834870997327        0.0298492925157944
-8                        3.2686633564298155       4.160269695150465        0.0298492925157944
-8                        5.800786086990055        4.006463218196776        0.0298492925157944
-7.999999999999998        7.999999999999998        5.12820512820513         0.03833975794250929
-8                        5.941895733753846        6.553042846969337        0.03833975794250929
-8                        5.800786086990055        4.006463218196776        0.03833975794250929
-8                        4.191857806960433        5.720834870997327        0.03300834264038264
-8                        5.800786086990055        4.006463218196776        0.03300834264038264
-8                        5.941895733753846        6.553042846969337        0.03300834264038264
-8                        5.941895733753846        6.553042846969337        0.03210457239476562
-7.999999999999998        7.999999999999998        5.12820512820513         0.03210457239476562
-8                        8                        7.692307692307696        0.03210457239476562
-8                        -5.746647837406631       6.703549938354547        0.04169780335053619
-8                        -5.786728177060034       8.980454141998884        0.04169780335053619
-8                        -8                       7.692307692307696        0.04169780335053619
-8                        -3.6408576312798626      5.745116325733745        0.02953421665034991
-8                        -3.712297517589743       7.8837227583404506       0.02953421665034991
-8                        -5.746647837406631       6.703549938354547        0.02953421665034991
-8                        -5.786728177060034       8.980454141998884        0.035852316899526435
-8                        -5.746647837406631       6.703549938354547        0.035852316899526435
-8                        -3.712297517589743       7.8837227583404506       0.035852316899526435
-8                        -1.0666328400541012      3.8460760166785235       0.028190998487139154
-8                        -2.1043988840981296      2.2255935830128304       0.028190998487139154
-8                        0                        2.1395157600494485       0.028190998487139154
-8                        -2.1043988840981296      2.2255935830128304       0.016582940286552446
-8                        -1.0666328400541012      3.8460760166785235       0.016582940286552446
-8                        -3.041207673239231       3.8885163298674867       0.016582940286552446
-8                        -1.0666328400541012      3.8460760166785235       0.02404526341550104
-8                        0                        2.1395157600494485       0.02404526341550104
-8                        1.0269477883073501       4.034277380186957        0.02404526341550104
-8                        -1.9515480287373923      6.926208432567538        0.02736185147281153
-8                        -3.712297517589743       7.8837227583404506       0.02736185147281153
-8                        -3.6408576312798626      5.745116325733745        0.02736185147281153
-8                        -2.010239761225048       5.2158163145966          0.014095499243569575
-8                        -3.6408576312798626      5.745116325733745        0.014095499243569575
-8                        -3.041207673239231       3.8885163298674867       0.014095499243569575
-8                        -2.010239761225048       5.2158163145966          0.014924646257897195
-8                        -3.041207673239231       3.8885163298674867       0.014924646257897195
-8                        -1.0666328400541012      3.8460760166785235       0.014924646257897195
-8                        -2.010239761225048       5.2158163145966          0.019899528343862927
-8                        -1.9515480287373923      6.926208432567538        0.019899528343862927
-8                        -3.6408576312798626      5.745116325733745        0.019899528343862927
-8                        1.0269477883073501       4.034277380186957        0.031507586544449656
-8                        3.2686633564298155       4.160269695150465        0.031507586544449656
-8                        1.9623631158265857       6.304344765114845        0.031507586544449656
-8                        4.191857806960433        5.720834870997327        0.02736185147281153
-8                        1.9623631158265857       6.304344765114845        0.02736185147281153
-8                        3.2686633564298155       4.160269695150465        0.02736185147281153
-8                        -1.0666328400541012      3.8460760166785235       0.026532704458483908
-8                        1.0269477883073501       4.034277380186957        0.026532704458483908
-8                        -0.35329094980004117     5.703356428415063        0.026532704458483908
-8                        -2.010239761225048       5.2158163145966          0.029020145501466775
-8                        -1.0666328400541012      3.8460760166785235       0.029020145501466775
-8                        -0.35329094980004117     5.703356428415063        0.029020145501466775
-8                        -0.35329094980004117     5.703356428415063        0.03399502758743251
-8                        1.0269477883073501       4.034277380186957        0.03399502758743251
-8                        1.9623631158265857       6.304344765114845        0.03399502758743251
-8                        -2.010239761225048       5.2158163145966          0.02404526341550104
-8                        -0.35329094980004117     5.703356428415063        0.02404526341550104
-8                        -1.9515480287373923      6.926208432567538        0.02404526341550104
-8                        -1.9515480287373923      6.926208432567538        0.024874410429828655
-8                        -0.35329094980004117     5.703356428415063        0.024874410429828655
-8                        -0.08063597291763891     7.893415661345892        0.024874410429828655
-8                        -0.35329094980004117     5.703356428415063        0.033165880573104885
-8                        1.9623631158265857       6.304344765114845        0.033165880573104885
-8                        -0.08063597291763891     7.893415661345892        0.033165880573104885
-8                        4.191857806960433        5.720834870997327        0.033679951721988025
-8                        5.941895733753846        6.553042846969337        0.033679951721988025
-8                        3.8826282310420575       7.796087197750056        0.033679951721988025
-8                        4.191857806960433        5.720834870997327        0.023216116401173416
-8                        3.8826282310420575       7.796087197750056        0.023216116401173416
-8                        1.9623631158265857       6.304344765114845        0.023216116401173416
-8                        -1.9515480287373923      6.926208432567538        0.020728675358190556
-8                        -1.8957387495139641      9.105278866378496        0.02072867535819056
-8                        -3.712297517589743       7.8837227583404506       0.020728675358190556
-8                        -1.9515480287373923      6.926208432567538        0.026532704458483908
-8                        -0.08063597291763891     7.893415661345892        0.026532704458483908
-8                        -1.8957387495139641      9.105278866378496        0.026532704458483908
-8                        -5.786728177060034       8.980454141998884        0.0379500588457754
-7.999999999999998        -7.999999999999998       10.256410256410259       0.0379500588457754
-8                        -8                       7.692307692307696        0.0379500588457754
-8                        3.8826282310420575       7.796087197750056        0.037311615644743015
-8                        1.7990334866822126       8.98930315195119         0.037311615644743015
-8                        1.9623631158265857       6.304344765114845        0.037311615644743015
-8                        -0.08063597291763891     7.893415661345892        0.03233673355877729
-8                        1.9623631158265857       6.304344765114845        0.03233673355877729
-8                        1.7990334866822126       8.98930315195119         0.03233673355877729
-8                        1.7990334866822126       8.98930315195119         0.02637516652576165
-8                        3.8826282310420575       7.796087197750056        0.02637516652576165
-8                        3.552204555061057        10.256410256410241       0.02637516652576165
-8                        5.941895733753846        6.553042846969337        0.037394530346175854
-8                        8                        7.692307692307696        0.037394530346175854
-8                        5.776102277530525        8.974358974358987        0.037394530346175854
-8                        3.8826282310420575       7.796087197750056        0.03304979999109908
-8                        5.941895733753846        6.553042846969337        0.03304979999109908
-8                        5.776102277530525        8.974358974358987        0.03304979999109908
-8                        3.8826282310420575       7.796087197750056        0.031034972746282915
-8                        5.776102277530525        8.974358974358987        0.031034972746282915
-8                        3.552204555061057        10.256410256410241       0.031034972746282915
-8                        8                        7.692307692307696        0.05105887314229512
-7.999999999999998        7.999999999999998        10.256410256410259       0.05105887314229512
-8                        5.776102277530525        8.974358974358987        0.05105887314229512
-8                        1.7990334866822126       8.98930315195119         0.02404526341550104
-8                        -0.0832187279303778      10.247747911042836       0.024045263415501034
-8                        -0.08063597291763891     7.893415661345892        0.02404526341550104
-8                        -0.08063597291763891     7.893415661345892        0.020728675358190563
-8                        -0.0832187279303778      10.247747911042836       0.020728675358190563
-8                        3.552204555061057        10.256410256410241       0.02155782237251817
-8                        1.7217323080214104       11.505753302282272       0.02155782237251817
-8                        1.7990334866822126       8.98930315195119         0.02155782237251817
-8                        -0.0832187279303778      10.247747911042836       0.02487441042982866
-8                        1.7990334866822126       8.98930315195119         0.02487441042982866
-8                        1.7217323080214104       11.505753302282272       0.02487441042982866
-7.999999999999998        -7.999999999999998       10.256410256410259       0.031001806865709945
-8                        -5.776102277530525       11.538461538461542       0.031001806865709945
-7.999999999999998        -7.999999999999998       12.820512820512825       0.031001806865709945
-8                        -5.786728177060034       8.980454141998884        0.038737748509386605
-8                        -5.776102277530525       11.538461538461542       0.038737748509386605
-7.999999999999998        -7.999999999999998       10.256410256410259       0.038737748509386605
-8                        -3.7540090134032575      10.312804121021934       0.03277618147637103
-8                        -5.776102277530525       11.538461538461542       0.03277618147637103
-8                        -5.786728177060034       8.980454141998884        0.03277618147637103
-8                        -3.712297517589743       7.8837227583404506       0.032021657693332796
-8                        -3.7540090134032575      10.312804121021934       0.032021657693332796
-8                        -5.786728177060034       8.980454141998884        0.032021657693332796
-8                        -1.8957387495139641      9.105278866378496        0.027204313540089287
-8                        -3.7540090134032575      10.312804121021934       0.027204313540089287
-8                        -3.712297517589743       7.8837227583404506       0.027204313540089287
-8                        -3.7540090134032575      10.312804121021934       0.023058578468451177
-8                        -1.8957387495139641      9.105278866378496        0.023058578468451177
-8                        -1.9204304450893273      11.511182428839806       0.023058578468451177
-8                        -1.9204304450893273      11.511182428839806       0.024045263415501034
-8                        -1.8957387495139641      9.105278866378496        0.02404526341550104
-8                        1.7217323080214104       11.505753302282272       0.035222165168637465
-8                        3.552204555061057        10.256410256410241       0.035222165168637465
-8                        3.552204555061037        12.82051282051282        0.035222165168637465
-7.999999999999998        7.999999999999998        10.256410256410259       0.04422670174423545
-7.999999999999998        7.999999999999998        12.820512820512825       0.04422670174423545
-8                        5.776102277530527        11.538461538461519       0.04422670174423545
-8                        5.776102277530525        8.974358974358987        0.03810759677849764
-7.999999999999998        7.999999999999998        10.256410256410259       0.03810759677849764
-8                        5.776102277530527        11.538461538461519       0.03810759677849764
-8                        5.776102277530525        8.974358974358987        0.041498808067097506
-8                        5.776102277530527        11.538461538461519       0.041498808067097506
-8                        3.552204555061057        10.256410256410241       0.041498808067097506
-8                        3.552204555061057        10.256410256410241       0.04517192934056893
-8                        5.776102277530527        11.538461538461519       0.04517192934056893
-8                        3.552204555061037        12.82051282051282        0.04517192934056893
-7.999999999999998        7.999999999999998        12.820512820512825       0.035188999288064474
-8                        8                        15.384615384615392       0.035188999288064474
-8                        5.776102277530519        14.102564102564108       0.035188999288064474
-8                        5.776102277530527        11.538461538461519       0.05267570982023395
-7.999999999999998        7.999999999999998        12.820512820512825       0.05267570982023395
-8                        5.776102277530519        14.102564102564108       0.05267570982023395
-8                        5.776102277530527        11.538461538461519       0.0365239259811318
-8                        5.776102277530519        14.102564102564108       0.0365239259811318
-8                        3.552204555061037        12.82051282051282        0.0365239259811318
-7.999999999999998        -7.999999999999998       12.820512820512825       0.04513876345999594
-8                        -5.776102277530514       14.102564102564097       0.04513876345999594
-8                        -8                       15.384615384615392       0.04513876345999594
-8                        -5.776102277530525       11.538461538461542       0.04106765161964722
-8                        -5.776102277530514       14.102564102564097       0.04106765161964722
-7.999999999999998        -7.999999999999998       12.820512820512825       0.04106765161964722
-8                        -3.721562756843412       12.742421963606798       0.03766814886090391
-8                        -5.776102277530514       14.102564102564097       0.03766814886090391
-8                        -5.776102277530525       11.538461538461542       0.03766814886090391
-8                        -5.776102277530525       11.538461538461542       0.02693069502536123
-8                        -3.7540090134032575      10.312804121021934       0.02693069502536123
-8                        -3.721562756843412       12.742421963606798       0.02693069502536123
-8                        -1.9204304450893273      11.511182428839806       0.03585231689952642
-8                        -3.721562756843412       12.742421963606798       0.03585231689952642
-8                        -3.7540090134032575      10.312804121021934       0.03585231689952642
-8                        1.7217323080214104       11.505753302282272       0.028190998487139143
-8                        -0.10906543450880335     12.74796658586328        0.028190998487139143
-8                        -0.0832187279303778      10.247747911042836       0.028190998487139143
-8                        -0.10906543450880335     12.74796658586328        0.024045263415501027
-8                        -3.721562756843412       12.742421963606798       0.02969175458307215
-8                        -1.9204304450893273      11.511182428839806       0.02969175458307215
-8                        -1.9364541468227525      13.992417313278594       0.02969175458307215
-8                        -0.10906543450880335     12.74796658586328        0.023887725482778798
-8                        -1.9364541468227525      13.992417313278594       0.023887725482778798
-8                        -1.9204304450893273      11.511182428839806       0.023887725482778798
-8                        3.552204555061037        12.82051282051282        0.019940985694579347
-8                        1.7164193947271276       14.05499732844393        0.019940985694579347
-8                        1.7217323080214104       11.505753302282272       0.019940985694579347
-8                        -0.10906543450880335     12.74796658586328        0.025703557444156283
-8                        1.7217323080214104       11.505753302282272       0.025703557444156283
-8                        1.7164193947271276       14.05499732844393        0.025703557444156283
-8                        -5.776102277530514       14.102564102564097       0.039566895523714216
-8                        -3.721562756843412       12.742421963606798       0.039566895523714216
-8                        -3.830218715088776       15.315438749941245       0.039566895523714216
-8                        -1.9364541468227525      13.992417313278594       0.04149880806709752
-8                        -3.830218715088776       15.315438749941245       0.04149880806709751
-8                        -3.721562756843412       12.742421963606798       0.04149880806709751
-8                        5.776102277530519        14.102564102564108       0.037037997130014905
-8                        8                        15.384615384615392       0.037037997130014905
-8                        5.776102277530527        16.666666666666664       0.037037997130014905
-8                        8                        15.384615384615392       0.03198849181275984
-8                        8                        17.94871794871796        0.03198849181275984
-8                        5.776102277530527        16.666666666666664       0.03198849181275984
-8                        -8                       15.384615384615392       0.0377925209130532
-8                        -5.7761022775305255      16.666666666666664       0.0377925209130532
-8                        -8                       17.94871794871796        0.0377925209130532
-8                        -5.776102277530514       14.102564102564097       0.04008096667259734
-8                        -5.7761022775305255      16.666666666666664       0.04008096667259734
-8                        -8                       15.384615384615392       0.04008096667259734
-8                        -3.830218715088776       15.315438749941245       0.044657858191685745
-8                        -5.7761022775305255      16.666666666666664       0.044657858191685745
-8                        -5.776102277530514       14.102564102564097       0.044657858191685745
-8                        5.776102277530519        14.102564102564108       0.0291030602028996
-8                        5.776102277530527        16.666666666666664       0.0291030602028996
-8                        3.552204555061045        15.384615384615385       0.0291030602028996
-8                        3.552204555061037        12.82051282051282        0.037668148860903895
-8                        5.776102277530519        14.102564102564108       0.037668148860903895
-8                        3.552204555061045        15.384615384615385       0.037668148860903895
-8                        1.7164193947271276       14.05499732844393        0.026416623876478085