% Model:              Cav_Hex_Unif_flux_v5.2.1 - Lin. Distn.mph
% Version:            COMSOL 5.5.0.359
% Date:               Apr 1 2022, 15:29
% Dimension:          3
% Nodes:              24710
% Expressions:        1
% Description:        Surface
% x                       y                        z                        Color
-4                        3.983840786724324        0                        0
-4                        3.9903160149391392       0                        0
-4                        3.983840786724324        0.0020000000000000005    0
-4                        3.9903160149391392       0.0020000000000000005    0
-4                        3.975945886211728        0.0020000000000000005    0
-4                        3.975945886211728        0                        0
-4                        3.9663200549613062       0                        0
-4                        4                        0.0020000000000000005    0
-4                        3.9956270833696563       0.0020000000000000005    0
-4                        4                        0                        0
-4                        3.9956270833696563       0                        0
-4                        3.9663200549613062       0.0020000000000000005    0
-4                        3.954583792152957        0.0020000000000000005    0
-4                        3.9545837921529565       0                        0
-4                        3.940274392671159        0.0020000000000000005    0
-4                        3.94027439267116         0                        0
-4                        3.9228277048393245       0                        0
-4                        3.9228277048393245       0.0020000000000000005    0
-4                        3.9015558885979273       0.0020000000000000005    0
-4                        3.9015558885979273       0                        0
-4                        3.875620297237024        0.0020000000000000005    0
-4                        3.875620297237024        0                        0
-4                        3.843998413538596        0.0020000000000000005    0
-4                        3.8439984135385967       0                        0
-4                        3.805443536777842        0.002000000000000001     0
-4                        3.805443536777843        0                        0
-4                        3.7584356312332776       0.0020000000000000005    0
-4                        3.7584356312332794       0                        0
-4                        3.7011213983957845       0.0020000000000000005    0
-4                        3.7011213983957862       0                        0
-4                        3.63124121020837         0.0020000000000000005    0
-4                        3.631241210208371        0                        0
-4                        -3.995627083369657       0                        0
-4                        -3.995627083369657       0.002000000000000001     0
-4                        -4                       0                        0
-4                        -4                       0.0020000000000000005    0
-3.999999999999999        -3.9903160149391392      0.002                    0
-3.999999999999999        -3.9903160149391392      0                        0
-4.000000000000001        -3.983840786724324       0.0020000000000000005    0
-4                        -3.983840786724324       0                        0
-4                        -3.975945886211728       0.002                    0
-4.000000000000001        -3.9759458862117287      0                        0
-4.000000000000001        -3.966320054961308       0.0020000000000000013    0
-4                        -3.966320054961307       0                        0
-4                        3.5460400226612183       0.0020000000000000005    0
-4                        3.5460400226612205       0                        0
-3.999999999999999        -3.9545837921529565      0.002                    0
-4                        -3.954583792152957       0                        0
-4                        -3.940274392671159       0.002                    0
-3.999999999999999        -3.940274392671159       0                        0
-4                        -3.9228277048393236      0.0020000000000000005    0
-4.000000000000001        -3.9228277048393245      0                        0
-4                        -3.901555888597928       0.002000000000000001     0
-3.999999999999999        -3.901555888597928       0                        0
-4                        3.4421587574881194       0.0020000000000000005    0
-4                        3.442158757488123        0                        0
-4                        3.315501869660178        0.002000000000000001     0
-4                        3.315501869660183        0                        0
-3.999999999999999        -3.8439984135385963      0.0020000000000000005    0
-4.000000000000001        -3.8439984135385976      0                        0
-4                        -3.805443536777843       0.0020000000000000005    0
-3.999999999999999        -3.805443536777843       0                        0
-4                        -3.8756202972370235      0.002                    0
-4.000000000000001        -3.8756202972370253      0                        0
-4                        3.1610758794921825       0.002                    3.096677259711211E-12
-3.999999999999999        3.161075879492187        0                        0
-4                        3.0669341914706054       0.001                    0
-4.000000000000001        2.9727925034490235       0.0020000000000000005    4.645015889566817E-12
-4                        2.972792503449029        0                        0
-4                        2.858010562741891        0.0010000000000000002    0
-4.000000000000001        -3.7011213983957876      0                        0
-3.9999999999999982       -3.701121398395784       0.002                    0
-4.000000000000001        -3.7584356312332803      0                        0
-3.999999999999999        -3.6312412102083695      0.0020000000000000005    3.481422049713021E-14
-4.000000000000001        -3.631241210208373       0                        0
-4.000000000000001        -3.7584356312332785      0.002000000000000001     0
-4                        2.7432286220347515       0.0020000000000000005    0
-4.000000000000001        2.7432286220347595       0                        0
-4                        -3.54604002266122        0.0020000000000000005    2.320948272432369E-14
-4                        -3.546040022661223       0                        0
-4                        -3.4421587574881207      0.0020000000000000005    2.3929035529364438E-21
-3.9999999999999982       -3.4421587574881234      0                        0
-3.999999999999999        -3.315501869660178       0.002                    0
-3.999999999999999        -3.315501869660183       0                        0
-4                        -3.238288874576183       0.0010000000000000002    0
-4                        2.4633336217544892       0.0020000000000000005    0
-4                        2.463333621754497        0                        0
-4                        2.299706580215034        0.0010000000000000002    0
-4                        2.136079538675565        0.0020000000000000005    0
-4                        2.1360795386755775       0                        0
-4                        1.9555513560242619       0.0010000000000000002    0
-4                        -2.97279250344903        0                        0
-4                        -2.9727925034490235      0.0020000000000000005    0
-4                        -3.0669341914706063      0.0010000000000000005    0
-4                        -2.85801056274189        0.0010000000000000002    0
-4                        -3.1610758794921834      0.0020000000000000005    0
-4                        -3.161075879492189       0                        0
-4                        -2.7432286220347604      0                        0
-4                        -2.743228622034752       0.0020000000000000005    0
-4                        -2.4633336217544892      0.0020000000000000005    0
-3.999999999999999        -2.463333621754501       0                        0
-4                        -2.299706580215034       0.0010000000000000002    0
-4                        -2.1360795386755664      0.0020000000000000005    0
-4                        -2.1360795386755815      0                        0
-4                        -1.955551356024264       0.001                    0
-4.000000000000001        1.775023173372949        0.002000000000000001     0
-4                        1.7750231733729587       0                        0
-4                        1.5820639934818708       0.0010000000000000005    0
-4.000000000000001        1.389104813590775        0.0020000000000000005    0
-4.000000000000001        1.389104813590793        0                        0
-4                        1.1907992527809392       0.0010000000000000002    0
-4.000000000000001        0.9924936919711476       0.002000000000000001     0
-4.000000000000001        0.9924936919711034       0                        0
-4                        0.7939949537646198       0.0010000000000000005    0
-4                        0.595496215558092        0                        0
-3.999999999999999        -1.7750231733729462      0.002                    0
-4                        -1.7750231733729636      0                        0
-4                        -1.5820639934818723      0.0010000000000000007    0
-4                        -1.3891048135907813      0.002000000000000001     0
-4                        -1.3891048135907933      0                        0
-4                        -1.1907992527810627      0.001                    0
-4                        0.5954962155581134       0.0020000000000000005    0
-4                        0.3969974770387257       0.0010000000000000002    0
-4                        -0.9924936919713332      0.0020000000000000005    0
-4                        -0.992493691971153       0                        0
-4                        -0.7939949537646527      0.0010000000000000002    0
-4                        -0.5954962155581521      0.0020000000000000005    0
-4                        -0.5954962155581689      0                        0
-4                        -0.3969974770387825      0.001                    0
-3.999999999999999        -0.19849873851939612     0.002                    0
-4                        0.19849873851935745      0.0020000000000000005    0
-4                        -0.19849873851941613     0                        0
-4                        0.19849873851933791      0                        0
-4                        -2.930988785010413E-14   0.0010000000000000002    0
-3.9956270833696563       -4                       0.0020000000000000005    0
-3.9903160149391392       -4                       0.0020000000000000005    0
-3.9956270833696563       -4                       0                        0
-3.99031601493914         -4                       0                        0
-3.983840786724324        -4                       0.0020000000000000005    0
-3.983840786724324        -4                       0                        0
-3.975945886211728        -4                       0.0020000000000000005    0
-3.9759458862117296       -4                       0                        0
-3.9663200549613062       -4                       0.0020000000000000005    0
-3.954583792152957        -4                       0.0020000000000000005    0
-3.954583792152958        -4                       0                        0
-3.966320054961308        -4                       0                        0
-3.940274392671159        -4                       0.0020000000000000005    0
-3.94027439267116         -4                       0                        0
-3.9228277048393245       -4                       0.0020000000000000005    0
-3.9228277048393245       -4                       0                        0
-3.9015558885979273       -4                       0.0020000000000000005    0
-3.9015558885979296       -4                       0                        0
-3.875620297237027        -4                       0                        0
-3.875620297237024        -4                       0.0020000000000000005    0
-3.843998413538599        -4                       0                        0
-3.843998413538596        -4                       0.0020000000000000005    0
-3.805443536777842        -4                       0.002000000000000001     0
-3.8054435367778465       -4                       0                        0
-3.7584356312332776       -4                       0.0020000000000000005    0
-3.758435631233283        -4                       0                        0
-3.701121398395791        -3.999999999999999       0                        0
-3.7011213983957845       -4                       0.0020000000000000005    2.7838392373464797E-28
-3.63124121020837         -4                       0.0020000000000000005    0
-3.6312412102083784       -3.999999999999999       0                        0
-3.5460400226612183       -4                       0.0020000000000000005    0
-3.5460400226612316       -4                       0                        0
-3.442158757488137        -4                       0                        0
-3.4421587574881194       -4                       0.0020000000000000005    2.8354354194092517E-32
-3.315501869660178        -4                       0.002000000000000001     2.712013310364905E-25
-3.3155018696602014       -4                       0                        0
-3.1610758794922105       -4                       0                        0
-3.1610758794921825       -4                       0.002                    6.014278984808447E-14
-2.972792503449059        -4.000000000000001       0                        0
-2.9727925034490235       -4.000000000000001       0.0020000000000000005    0
-2.7432286220347515       -4                       0.0020000000000000005    1.699547643299252E-23
-2.7432286220347972       -4                       0                        0
-2.603281121894648        -4                       0.0010000000000000002    0
-2.4633336217544892       -4                       0.0020000000000000005    1.699547643299252E-23
-2.4633336217545447       -4                       0                        0
-2.136079538675565        -4                       0.0020000000000000005    0
-2.1360795386756344       -4                       0                        0
-1.955551356024294        -4                       0.0010000000000000002    0
-1.775023173372949        -4.000000000000001       0.002000000000000001     0
-1.7750231733730226       -4                       0                        0
-1.5820639934819036       -4                       0.0010000000000000005    0
-1.389104813590775        -4.000000000000001       0.0020000000000000005    8.76190557889663E-14
-1.3891048135908588       -4.000000000000001       0                        0
-1.1907992527810067       -4                       0.0010000000000000002    0
-0.9924936919711476       -4.000000000000001       0.002000000000000001     8.76190557889663E-14
-0.9924936919712383       -4.000000000000001       0                        0
-0.7939949537646411       -4                       0.0010000000000000005    0
-0.5954962155581134       -4                       0.0020000000000000005    0
-0.5954962155581347       -4                       0                        0
-0.39699747703874877      -4                       0.0010000000000000002    0
-0.19849873851935745      -4                       0.0020000000000000005    0
-0.198498738519385        -4                       0                        0
4.440892098500626E-15     -4                       0.0010000000000000002    0
0.19849873851939612       -3.999999999999999       0.002                    0
0.19849873851936634       -3.999999999999999       0                        0
4.440892098500626E-15     -4                       0.0010000000000000002    2.849301305715812E-4
0.19849873851936634       -3.999999999999999       0                        2.849301305715812E-4
-0.198498738519385        -4                       0                        2.849301305715812E-4
0.39699747703875765       -4                       0.001                    0
0.5954962155581521        -4                       0.0020000000000000005    0
0.5954962155581183        -4                       0                        0
0.7939949537646298        -4                       0.0010000000000000002    0
0.9924936919713332        -4                       0.0020000000000000005    0
0.9924936919711081        -3.999999999999999       0                        0
1.1907992527810984        -4                       0.001                    0
1.3891048135907813        -4                       0.002000000000000001     0
1.3891048135908635        -4                       0                        0
1.5820639934819025        -4                       0.0010000000000000007    0
1.7750231733730237        -4                       0                        0
1.7750231733729462        -3.999999999999999       0.002                    0
1.9555513560242905        -4                       0.001                    0
2.1360795386755664        -4                       0.0020000000000000005    0
2.1360795386756353        -4                       0                        0
2.299706580215057         -4                       0.0010000000000000002    0
2.4633336217545474        -4                       0                        0
2.4633336217544892        -4                       0.0020000000000000005    0
2.603281121894643         -4                       0.0010000000000000002    0
2.743228622034752         -4                       0.0020000000000000005    0
2.7432286220347963        -4                       0                        0
2.8580105627419043        -4                       0.0010000000000000002    0
2.9727925034490235        -4                       0.0020000000000000005    5.662850317772645E-28
2.972792503449058         -4                       0                        0
3.066934191470617         -4                       0.0010000000000000005    0
3.1610758794921834        -4                       0.0020000000000000005    5.662850317772645E-28
3.1610758794922105        -4                       0                        0
3.238288874576191         -4                       0.0010000000000000002    0
3.3155018696601988        -3.999999999999999       0                        0
3.315501869660178         -3.999999999999999       0.002                    4.3780917208326094E-33
3.442158757488138         -4.000000000000001       0                        0
3.4421587574881207        -4                       0.0020000000000000005    4.3780917208326094E-33
3.5460400226612316        -3.999999999999999       0                        0
3.54604002266122          -4                       0.0020000000000000005    2.0838513758988817E-32
3.63124121020838          -4                       0                        0
3.6312412102083695        -3.999999999999999       0.0020000000000000005    0
3.7011213983957925        -3.999999999999999       0                        0
3.701121398395784         -3.9999999999999982      0.002                    0
3.7584356312332834        -3.999999999999999       0                        0
3.7584356312332785        -4.000000000000001       0.002000000000000001     0
3.8054435367778465        -4                       0                        0
3.805443536777843         -4                       0.0020000000000000005    0
3.843998413538599         -4                       0                        0
3.8439984135385963        -3.999999999999999       0.0020000000000000005    0
3.8756202972370257        -3.999999999999999       0                        0
3.8756202972370235        -4                       0.002                    0
3.9015558885979282        -3.999999999999999       0                        0
3.901555888597928         -4                       0.002000000000000001     0
3.922827704839325         -4                       0                        0
3.9228277048393236        -4                       0.0020000000000000005    0
3.94027439267116          -3.999999999999999       0                        0
3.940274392671159         -4                       0.002                    0
3.954583792152958         -4                       0                        0
3.9545837921529565        -3.999999999999999       0.002                    0
3.966320054961307         -4                       0                        0
3.966320054961308         -4.000000000000001       0.0020000000000000013    0
3.9759458862117287        -4                       0                        0
3.975945886211728         -4                       0.002                    0
3.983840786724324         -4.000000000000001       0                        0
3.983840786724324         -4.000000000000001       0.0020000000000000005    0
4                         -4                       0.0020000000000000005    0
4                         -4                       0                        0
3.995627083369657         -4                       0.002000000000000001     0
3.99031601493914          -3.999999999999999       0                        0
3.9903160149391392        -3.999999999999999       0.002                    0
3.995627083369657         -3.999999999999999       0                        0
-3.995627083369657        4                        0.002000000000000001     0
-3.995627083369657        4                        0                        0
-3.9903160149391392       3.999999999999999        0.002                    0
-3.99031601493914         4                        0                        0
-3.983840786724324        4.000000000000001        0.0020000000000000005    0
-3.983840786724324        4                        0                        0
-3.975945886211728        4                        0.002                    0
-3.9759458862117287       4                        0                        0
-3.966320054961308        4.000000000000001        0.0020000000000000013    0
-3.9663200549613062       3.999999999999999        0                        0
-3.9545837921529565       3.999999999999999        0.002                    0
-3.954583792152958        4.000000000000001        0                        0
-3.940274392671159        4                        0.002                    0
-3.94027439267116         4                        0                        0
-3.9228277048393236       4                        0.0020000000000000005    0
-3.9228277048393245       4.000000000000001        0                        0
-3.901555888597928        4                        0.002000000000000001     0
-3.9015558885979282       4                        0                        0
-3.8756202972370235       4                        0.002                    2.2687599450181204E-19
-3.875620297237025        4                        0                        0
-3.8439984135385963       3.999999999999999        0.0020000000000000005    2.2687599450181204E-19
-3.8439984135385976       4                        0                        0
-3.805443536777843        4                        0.0020000000000000005    0
-3.8054435367778447       4.000000000000001        0                        0
-3.7584356312332785       4.000000000000001        0.002000000000000001     0
-3.7584356312332803       4                        0                        0
-3.701121398395784        3.9999999999999982       0.002                    0
-3.7011213983957867       3.999999999999999        0                        0
-3.6312412102083695       3.999999999999999        0.0020000000000000005    0
-3.631241210208372        3.999999999999999        0                        0
-3.54604002266122         4                        0.0020000000000000005    0
-3.546040022661224        4                        0                        0
3.9956270833696563        4                        0                        0
4                         4                        0                        0
3.9956270833696563        4                        0.0020000000000000005    0
3.9903160149391392        4                        0.0020000000000000005    0
3.9903160149391392        4                        0                        0
3.983840786724324         4                        0.0020000000000000005    0
3.983840786724324         4                        0                        0
3.975945886211728         4                        0.0020000000000000005    0
3.975945886211728         4                        0                        0
-3.4421587574881207       4                        0.0020000000000000005    0
-3.442158757488127        4.000000000000001        0                        0
4                         4                        0.0020000000000000005    0
3.9663200549613062        4                        0.0020000000000000005    0
3.966320054961308         4                        0                        0
3.954583792152957         4                        0                        0
3.940274392671159         4                        0                        0
3.940274392671159         4                        0.0020000000000000005    0
-3.315501869660178        3.999999999999999        0.002                    0
-3.315501869660186        4                        0                        0
-3.2382888745761846       4                        0.0010000000000000005    0
3.954583792152957         4                        0.0020000000000000005    0
3.9228277048393245        4                        0.0020000000000000005    0
3.9228277048393245        4                        0                        0
3.9015558885979273        4                        0.0020000000000000005    0
3.901555888597928         4                        0                        0
3.875620297237024         4                        0                        0
3.875620297237024         4                        0.0020000000000000005    0
3.843998413538596         4                        0.0020000000000000005    0
3.843998413538597         4                        0                        0
3.805443536777842         4                        0.002000000000000001     0
3.805443536777843         4                        0                        0
3.758435631233278         3.999999999999999        0                        0
3.7584356312332776        4                        0.0020000000000000005    0
3.7011213983957845        4                        0.0020000000000000005    0
3.701121398395787         4                        0                        0
-3.1610758794921834       4                        0.0020000000000000005    0
-3.161075879492192        4                        0                        0
3.5460400226612183        4                        0.0020000000000000005    0
3.546040022661223         4                        0                        0
3.63124121020837          4                        0.0020000000000000005    0
3.6312412102083718        4                        0                        0
-2.9727925034490235       4                        0.0020000000000000005    1.0524954157612371E-16
-2.972792503449034        4.000000000000001        0                        0
-2.4633336217545088       4                        0                        0
-2.2997065802150374       4                        0.0010000000000000002    0
-2.4633336217544892       4                        0.0020000000000000005    0
-2.1360795386755664       4                        0.0020000000000000005    0
-2.136079538675588        4                        0                        0
-1.9555513560242668       4                        0.001                    0
3.442158757488126         4                        0                        0
3.1610758794921914        4                        0                        0
3.1610758794921825        4                        0.002                    0
2.9727925034490346        4.000000000000001        0                        0
2.9727925034490235        4.000000000000001        0.0020000000000000005    0
3.4421587574881194        4                        0.0020000000000000005    0
3.3155018696601846        4                        0                        0
3.315501869660178         4                        0.002000000000000001     0
2.7432286220347515        4                        0.0020000000000000005    0
2.7432286220347644        4.000000000000001        0                        0
2.6032811218946286        4                        0.0010000000000000002    0
2.463333621754505         4                        0                        0
-1.7750231733729462       3.999999999999999        0.002                    0
-1.775023173372971        3.999999999999999        0                        0
-1.582063993481876        4                        0.0010000000000000007    0
-1.3891048135907813       4                        0.002000000000000001     0
-1.3891048135908033       4                        0                        0
-1.190799252781068        4                        0.001                    0
-0.9924936919713332       4                        0.0020000000000000005    0
-0.9924936919713332       4                        0                        0
-0.7939949537647424       4                        0.0010000000000000002    0
-0.5954962155581606       4.000000000000001        0                        0
-2.743228622034752        4                        0.0020000000000000005    1.0524954157612371E-16
-2.7432286220347644       4                        0                        0