% Model:              Cav_Hex_Unif_flux_v5.2.1 - Lin. Distn.mph
% Version:            COMSOL 5.5.0.359
% Date:               Apr 1 2022, 15:28
% Dimension:          3
% Nodes:              18235
% Expressions:        1
% Description:        Surface
% x                       y                        z                        Color
-1                        0.7340514114315191       34.729416985512565       1.244505189572824E-4
-0.9999999999999998       0.9999999999999998       34.6111111111111         1.244505189572824E-4
-1                        1                        34.99999999999999        1.244505189572824E-4
-1                        0.7340514114315191       34.729416985512565       5.438595381461314E-4
-1                        1                        34.99999999999999        5.438595381461314E-4
-1                        0.6000000000000001       34.99999999999999        5.438595381461314E-4
-1                        1                        33.83333333333333        5.772582803865514E-4
-1                        1                        34.222222222222214       5.772582803865514E-4
-1                        0.6631497966935582       34.02777777777777        5.772582803865514E-4
-1                        0.19999999999999993      34.99999999999999        3.8704507617447686E-4
-1                        0.37896634889878333      34.66142945906391        3.8704507617447686E-4
-1                        0.6000000000000001       34.99999999999999        3.8704507617447686E-4
-1                        0.7340514114315191       34.729416985512565       2.98287405815022E-4
-1                        0.6000000000000001       34.99999999999999        2.98287405815022E-4
-1                        0.37896634889878333      34.66142945906391        2.98287405815022E-4
-1                        0.6913143161898483       34.4040037871925         3.734404777324313E-5
-1                        1                        34.222222222222214       3.734404777324313E-5
-0.9999999999999998       0.9999999999999998       34.6111111111111         3.734404777324313E-5
-1                        0.6913143161898483       34.4040037871925         6.853042067878246E-10
-1                        0.6631497966935582       34.02777777777777        6.853042067878246E-10
-1                        1                        34.222222222222214       6.853042067878246E-10
-1                        0.7340514114315191       34.729416985512565       5.912712854270145E-4
-1                        0.6913143161898483       34.4040037871925         5.912712854270145E-4
-0.9999999999999998       0.9999999999999998       34.6111111111111         5.912712854270145E-4
-1                        0.7340514114315191       34.729416985512565       1.0084728293716391E-5
-1                        0.37896634889878333      34.66142945906391        1.0084728293716391E-5
-1                        0.6913143161898483       34.4040037871925         1.0084728293716391E-5
-1                        0.6631497966935582       34.02777777777777        5.481350282847971E-4
-1                        0.6913143161898483       34.4040037871925         5.481350282847971E-4
-1                        0.36134101217173265      34.21886907767237        5.481350282847971E-4
-1                        0.6913143161898483       34.4040037871925         0.0014535539577329802
-1                        0.37896634889878333      34.66142945906391        0.0014535539577329802
-1                        0.36134101217173265      34.21886907767237        0.0014535539577329802
-1                        0.19999999999999993      34.99999999999999        5.9238802230281395E-5
-1                        -0.016315723659318104    34.696155363637295       5.9238802230281395E-5
-1                        0.37896634889878333      34.66142945906391        5.9238802230281395E-5
-1                        0.09416368419550136      34.414268760962344       1.8995719984066592E-4
-1                        0.36134101217173265      34.21886907767237        1.8995719984066592E-4
-1                        0.37896634889878333      34.66142945906391        1.8995719984066592E-4
-1                        0.09416368419550136      34.414268760962344       3.569697805213247E-4
-1                        0.37896634889878333      34.66142945906391        3.569697805213247E-4
-1                        -0.016315723659318104    34.696155363637295       3.569697805213247E-4
-1                        0.09416368419550136      34.414268760962344       0.0011814313738294265
-1                        -0.016315723659318104    34.696155363637295       0.0011814313738294265
-1                        -0.21829917654685987     34.38958852476056        0.0011814313738294265
-1                        -0.21829917654685987     34.38958852476056        3.573239837855383E-4
-1                        -0.016315723659318104    34.696155363637295       3.573239837855383E-4
-1                        -0.3960450707538521      34.70171128412349        3.573239837855383E-4
-1                        -0.016315723659318104    34.696155363637295       3.745984667553326E-4
-1                        0.19999999999999993      34.99999999999999        3.745984667553326E-4
-1                        -0.19999999999999996     34.99999999999999        3.745984667553326E-4
-1                        -0.19999999999999996     34.99999999999999        6.806508544786908E-6
-1                        -0.3960450707538521      34.70171128412349        6.806508544786908E-6
-1                        -0.016315723659318104    34.696155363637295       6.806508544786908E-6
-1                        -0.3960450707538521      34.70171128412349        7.130302004173342E-4
-1                        -0.19999999999999996     34.99999999999999        7.130302004173342E-4
-1                        -0.6000000000000001      34.99999999999999        7.130302004173342E-4
-1                        -0.7189528833641974      34.742928018743726       7.151698390723402E-4
-1                        -0.3960450707538521      34.70171128412349        7.151698390723402E-4
-1                        -0.6000000000000001      34.99999999999999        7.151698390723402E-4
-1                        -0.7189528833641974      34.742928018743726       3.994484619209997E-4
-1                        -0.6000000000000001      34.99999999999999        3.994484619209997E-4
-1                        -1                       34.99999999999999        3.994484619209997E-4
-1                        1                        33.05555555555556        1.6234336846033816E-4
-1                        1                        33.44444444444444        1.6234336846033816E-4
-1                        0.663149796693558        33.25                    1.6234336846033816E-4
-1                        0.09416368419550136      34.414268760962344       8.319060210897876E-7
-1                        -0.21829917654685987     34.38958852476056        8.319060210897876E-7
-1                        -0.013703925350385449    34.048538725928736       8.319060210897876E-7
-1                        0.09416368419550136      34.414268760962344       2.6759480789660277E-4
-1                        -0.013703925350385449    34.048538725928736       2.6759480789660277E-4
-1                        0.36134101217173265      34.21886907767237        2.6759480789660277E-4
-1                        1                        33.44444444444444        6.921921138001376E-4
-1                        1                        33.83333333333333        6.921921138001376E-4
-1                        0.6631497966935547       33.638888888888886       6.921921138001376E-4
-1                        0.663149796693558        33.25                    7.289769572438078E-5
-1                        1                        33.44444444444444        7.289769572438078E-5
-1                        0.6631497966935547       33.638888888888886       7.289769572438078E-5
-1                        0.6631497966935547       33.638888888888886       9.473889117250488E-5
-1                        1                        33.83333333333333        9.473889117250488E-5
-1                        0.6631497966935582       34.02777777777777        9.473889117250488E-5
-1                        0.6631497966935547       33.638888888888886       1.3106197304212928E-5
-1                        0.6631497966935582       34.02777777777777        1.3106197304212928E-5
-1                        0.3262995933871129       33.83333333333333        1.3106197304212928E-5
-1                        0.36134101217173265      34.21886907767237        5.79592925820167E-4
-1                        0.3262995933871129       33.83333333333333        5.79592925820167E-4
-1                        0.6631497966935582       34.02777777777777        5.79592925820167E-4
-1                        0.3262995933871129       33.83333333333333        0.0010222475944052902
-1                        0.36134101217173265      34.21886907767237        0.0010222475944052902
-1                        -0.013703925350385449    34.048538725928736       0.0010222475944052902
-1                        0.663149796693558        33.25                    2.6987102034960994E-4
-1                        0.6631497966935547       33.638888888888886       2.6987102034960994E-4
-1                        0.3262995933871129       33.44444444444444        2.6987102034960994E-4
-1                        0.3262995933871129       33.44444444444444        4.964874735446524E-4
-1                        0.6631497966935547       33.638888888888886       4.964874735446524E-4
-1                        0.3262995933871129       33.83333333333333        4.964874735446524E-4
-1                        0.3262995933871129       33.44444444444444        0.0010862676279850185
-1                        0.3262995933871129       33.83333333333333        0.0010862676279850185
-1                        -0.010550609919331544    33.638888888888886       0.0010862676279850185
-1                        0.3262995933871129       33.83333333333333        8.165198533419782E-12
-1                        -0.013703925350385449    34.048538725928736       8.165198533419782E-12
-1                        -0.010550609919331544    33.638888888888886       8.165198533419782E-12
-1                        -0.33867851317742265     33.815252714556266       1.6153576156847994E-4
-1                        -0.010550609919331544    33.638888888888886       1.6153576156847994E-4
-1                        -0.013703925350385449    34.048538725928736       1.6153576156847994E-4
-1                        -0.7189528833641974      34.742928018743726       3.3090620115900905E-4
-1                        -0.6226007534685665      34.399107219868455       3.3090620115900905E-4
-1                        -0.3960450707538521      34.70171128412349        3.3090620115900905E-4
-1                        -0.3960450707538521      34.70171128412349        8.794513212319965E-4
-1                        -0.6226007534685665      34.399107219868455       8.794513212319965E-4
-1                        -0.21829917654685987     34.38958852476056        8.794513212319965E-4
-1                        -0.3650545065802558      34.123017526867926       2.5211528801962297E-8
-1                        -0.21829917654685987     34.38958852476056        2.5211528801962297E-8
-1                        -0.6226007534685665      34.399107219868455       2.5211528801962297E-8
-1                        -0.3650545065802558      34.123017526867926       3.018616942331886E-4
-1                        -0.33867851317742265     33.815252714556266       3.018616942331886E-4
-1                        -0.013703925350385449    34.048538725928736       3.018616942331886E-4
-1                        -0.3650545065802558      34.123017526867926       9.383053503076825E-6
-1                        -0.013703925350385449    34.048538725928736       9.383053503076825E-6
-1                        -0.21829917654685987     34.38958852476056        9.383053503076825E-6
-1                        -0.3650545065802558      34.123017526867926       1.2010704265198348E-6
-1                        -0.6226007534685665      34.399107219868455       1.2010704265198348E-6
-1                        -0.6619047895250687      34.005823607187175       1.2010704265198348E-6
-1                        -0.3650545065802558      34.123017526867926       2.8910568838586703E-4
-1                        -0.6619047895250687      34.005823607187175       2.8910568838586703E-4
-1                        -0.33867851317742265     33.815252714556266       2.8910568838586703E-4
-1                        -0.6619047895250687      34.005823607187175       0.0012720146180335199
-1                        -0.6226007534685665      34.399107219868455       0.0012720146180335199
-1                        -1                       34.222222222222214       0.0012720146180335199
-1                        -0.7189528833641974      34.742928018743726       4.761748740930269E-6
-1                        -1                       34.99999999999999        4.761748740930269E-6
-0.9999999999999998       -0.9999999999999998      34.6111111111111         4.761748740930269E-6
-1                        -1                       34.222222222222214       7.455744972715304E-4
-1                        -0.6226007534685665      34.399107219868455       7.455744972715304E-4
-0.9999999999999998       -0.9999999999999998      34.6111111111111         7.455744972715304E-4
-1                        -0.7189528833641974      34.742928018743726       0.00121907475259234
-0.9999999999999998       -0.9999999999999998      34.6111111111111         0.00121907475259234
-1                        -0.6226007534685665      34.399107219868455       0.00121907475259234
-1                        1                        32.277777777777786       5.768464245450407E-4
-1                        1                        32.66666666666667        5.768464245450407E-4
-1                        0.6631497966935582       32.47222222222223        5.768464245450407E-4
-1                        1                        32.66666666666667        6.61381081207223E-7
-1                        1                        33.05555555555556        6.61381081207223E-7
-1                        0.6631497966935574       32.861111111111114       6.61381081207223E-7
-1                        0.6631497966935582       32.47222222222223        2.938783153609927E-4
-1                        1                        32.66666666666667        2.938783153609927E-4
-1                        0.6631497966935574       32.861111111111114       2.938783153609927E-4
-1                        0.6631497966935574       32.861111111111114       5.192861491308746E-4
-1                        1                        33.05555555555556        5.192861491308746E-4
-1                        0.663149796693558        33.25                    5.192861491308746E-4
-1                        0.6631497966935574       32.861111111111114       4.430596220095885E-4
-1                        0.663149796693558        33.25                    4.430596220095885E-4
-1                        0.3262995933871149       33.05555555555556        4.430596220095885E-4
-1                        0.3262995933871149       33.05555555555556        4.4064271997773486E-4
-1                        0.663149796693558        33.25                    4.4064271997773486E-4
-1                        0.3262995933871129       33.44444444444444        4.4064271997773486E-4
-1                        0.6631497966935582       32.47222222222223        1.2154147830923141E-4
-1                        0.6631497966935574       32.861111111111114       1.2154147830923141E-4
-1                        0.3262995933871151       32.66666666666667        1.2154147830923141E-4
-1                        0.3262995933871151       32.66666666666667        5.3714523342859535E-5
-1                        0.6631497966935574       32.861111111111114       5.3714523342859535E-5
-1                        0.3262995933871149       33.05555555555556        5.3714523342859535E-5
-1                        0.010550609919328213     33.25                    6.093484114285811E-4
-1                        0.3262995933871149       33.05555555555556        6.093484114285811E-4
-1                        0.3262995933871129       33.44444444444444        6.093484114285811E-4
-1                        0.3262995933871129       33.44444444444444        5.2257695233482646E-5
-1                        -0.010550609919331544    33.638888888888886       5.2257695233482646E-5
-1                        0.010550609919328213     33.25                    5.2257695233482646E-5
-1                        0.010550609919327549     32.86111111111112        2.4093278793486462E-4
-1                        0.3262995933871151       32.66666666666667        2.4093278793486462E-4
-1                        0.3262995933871149       33.05555555555556        2.4093278793486462E-4
-1                        0.3262995933871149       33.05555555555556        5.10889550909946E-4
-1                        0.010550609919328213     33.25                    5.10889550909946E-4
-1                        0.010550609919327549     32.86111111111112        5.10889550909946E-4
-1                        0.010550609919327549     32.86111111111112        7.297484060106638E-4
-1                        0.010550609919328213     33.25                    7.297484060106638E-4
-1                        -0.32629959338711473     33.05555555555556        7.297484060106638E-4
-1                        -0.32629959338711473     33.05555555555556        5.647569713245369E-4
-1                        0.010550609919328213     33.25                    5.647569713245369E-4
-1                        -0.32629959338711284     33.44444444444445        5.647569713245369E-4
-1                        -0.32629959338711284     33.44444444444445        4.5600804587364244E-4
-1                        -0.010550609919331544    33.638888888888886       4.5600804587364244E-4
-1                        -0.33867851317742265     33.815252714556266       4.5600804587364244E-4
-1                        -0.32629959338711284     33.44444444444445        4.407062514175979E-4
-1                        0.010550609919328213     33.25                    4.407062514175979E-4
-1                        -0.010550609919331544    33.638888888888886       4.407062514175979E-4
-1                        -0.6631497966935547      33.638888888888886       4.758531381047197E-4
-1                        -0.33867851317742265     33.815252714556266       4.758531381047197E-4
-1                        -0.6619047895250687      34.005823607187175       4.758531381047197E-4
-1                        -0.33867851317742265     33.815252714556266       3.8565429922334356E-4
-1                        -0.6631497966935547      33.638888888888886       3.8565429922334356E-4
-1                        -0.32629959338711284     33.44444444444445        3.8565429922334356E-4
-1                        -0.663149796693558       33.25                    2.9251244601257765E-4
-1                        -0.32629959338711284     33.44444444444445        2.9251244601257765E-4
-1                        -0.6631497966935547      33.638888888888886       2.9251244601257765E-4
-1                        -0.32629959338711473     33.05555555555556        6.460268882116761E-4
-1                        -0.32629959338711284     33.44444444444445        6.460268882116761E-4
-1                        -0.663149796693558       33.25                    6.460268882116761E-4
-1                        -0.663149796693558       33.25                    3.411322919034566E-4
-1                        -0.6631497966935547      33.638888888888886       3.411322919034566E-4
-1                        -1                       33.44444444444444        3.411322919034566E-4
-1                        -1                       33.83333333333333        7.100910236802426E-4
-1                        -0.6619047895250687      34.005823607187175       7.100910236802426E-4
-1                        -1                       34.222222222222214       7.100910236802426E-4
-1                        -1                       33.44444444444444        4.406427224171199E-5
-1                        -0.6631497966935547      33.638888888888886       4.406427224171199E-5
-1                        -1                       33.83333333333333        4.406427224171199E-5
-1                        -0.6619047895250687      34.005823607187175       1.2881027604671406E-19
-1                        -1                       33.83333333333333        1.2881027604671406E-19
-1                        -0.6631497966935547      33.638888888888886       1.2881027604671406E-19
-1                        1                        31.5                     2.0583475083092958E-4
-1                        1                        31.88888888888889        2.0583475083092958E-4
-1                        0.6631497966935547       31.69444444444445        2.0583475083092958E-4
-1                        1                        31.88888888888889        2.3677626783918376E-4
-1                        1                        32.277777777777786       2.3677626783918376E-4
-1                        0.6631497966935547       32.08333333333334        2.3677626783918376E-4
-1                        0.6631497966935547       31.69444444444445        1.3968927459443525E-5
-1                        1                        31.88888888888889        1.3968927459443525E-5
-1                        0.6631497966935547       32.08333333333334        1.3968927459443525E-5
-1                        0.6631497966935547       32.08333333333334        4.46962628827667E-4
-1                        1                        32.277777777777786       4.46962628827667E-4
-1                        0.6631497966935582       32.47222222222223        4.46962628827667E-4
-1                        0.3262995933871129       32.277777777777786       8.505692549696062E-4
-1                        0.6631497966935582       32.47222222222223        8.505692549696062E-4
-1                        0.3262995933871151       32.66666666666667        8.505692549696062E-4
-1                        0.6631497966935547       32.08333333333334        4.8137131380404516E-4
-1                        0.6631497966935582       32.47222222222223        4.8137131380404516E-4
-1                        0.3262995933871129       32.277777777777786       4.8137131380404516E-4
-1                        0.6631497966935547       31.69444444444445        1.6126328780709446E-4
-1                        0.6631497966935547       32.08333333333334        1.6126328780709446E-4
-1                        0.32629959338710934      31.88888888888889        1.6126328780709446E-4
-1                        0.32629959338710934      31.88888888888889        3.868176194795933E-4
-1                        0.6631497966935547       32.08333333333334        3.868176194795933E-4
-1                        0.3262995933871129       32.277777777777786       3.868176194795933E-4
-1                        0.01055060991932777      32.472222222222236       1.2983815957273003E-5
-1                        0.3262995933871129       32.277777777777786       1.2983815957273003E-5
-1                        0.3262995933871151       32.66666666666667        1.2983815957273003E-5
-1                        0.3262995933871151       32.66666666666667        1.6771213644818748E-4
-1                        0.010550609919327549     32.86111111111112        1.6771213644818748E-4
-1                        0.01055060991932777      32.472222222222236       1.6771213644818748E-4
-1                        0.010550609919335097     32.08333333333335        5.910962088686348E-4
-1                        0.32629959338710934      31.88888888888889        5.910962088686348E-4
-1                        0.3262995933871129       32.277777777777786       5.910962088686348E-4
-1                        0.3262995933871129       32.277777777777786       3.5727430327472286E-4
-1                        0.01055060991932777      32.472222222222236       3.5727430327472286E-4
-1                        0.010550609919335097     32.08333333333335        3.5727430327472286E-4
-1                        0.010550609919335097     32.08333333333335        5.428529320341301E-4
-1                        0.01055060991932777      32.472222222222236       5.428529320341301E-4
-1                        -0.3262995933871129      32.27777777777779        5.428529320341301E-4
-1                        -0.32629959338711584     32.66666666666668        5.827093790422483E-4
-1                        0.010550609919327549     32.86111111111112        5.827093790422483E-4
-1                        -0.32629959338711473     33.05555555555556        5.827093790422483E-4
-1                        -0.3262995933871129      32.27777777777779        6.472638866712525E-4
-1                        0.01055060991932777      32.472222222222236       6.472638866712525E-4
-1                        -0.32629959338711584     32.66666666666668        6.472638866712525E-4
-1                        0.01055060991932777      32.472222222222236       3.3691583213007987E-4
-1                        0.010550609919327549     32.86111111111112        3.3691583213007987E-4
-1                        -0.32629959338711584     32.66666666666668        3.3691583213007987E-4
-1                        -0.6631497966935574      32.861111111111114       4.816165739208891E-4
-1                        -0.32629959338711473     33.05555555555556        4.816165739208891E-4
-1                        -0.663149796693558       33.25                    4.816165739208891E-4
-1                        -0.32629959338711584     32.66666666666668        6.735398854622478E-4
-1                        -0.32629959338711473     33.05555555555556        6.735398854622478E-4
-1                        -0.6631497966935574      32.861111111111114       6.735398854622478E-4
-1                        -0.6631497966935582      32.47222222222223        2.7238568124418873E-5
-1                        -0.32629959338711584     32.66666666666668        2.7238568124418873E-5
-1                        -0.6631497966935574      32.861111111111114       2.7238568124418873E-5
-1                        -0.3262995933871129      32.27777777777779        5.911409466041503E-4
-1                        -0.32629959338711584     32.66666666666668        5.911409466041503E-4
-1                        -0.6631497966935582      32.47222222222223        5.911409466041503E-4
-1                        -0.6631497966935582      32.47222222222223        2.9208297641766996E-4
-1                        -0.6631497966935574      32.861111111111114       2.9208297641766996E-4
-1                        -1                       32.66666666666667        2.9208297641766996E-4
-1                        -1                       33.05555555555556        1.50308676319456E-8
-1                        -0.663149796693558       33.25                    1.50308676319456E-8
-1                        -1                       33.44444444444444        1.50308676319456E-8
-1                        -1                       32.66666666666667        5.422963648386847E-4
-1                        -0.6631497966935574      32.861111111111114       5.422963648386847E-4
-1                        -1                       33.05555555555556        5.422963648386847E-4
-1                        -0.6631497966935574      32.861111111111114       9.299519346008382E-4
-1                        -0.663149796693558       33.25                    9.299519346008382E-4
-1                        -1                       33.05555555555556        9.299519346008382E-4
-0.9999999999999998       0.9999999999999998       30.722222222222225       4.4469131215130273E-4
-1.0000000000000002       1.0000000000000002       31.11111111111113        4.4469131215130273E-4
-1                        0.6631497966935513       30.916666666666682       4.4469131215130273E-4
-1.0000000000000002       1.0000000000000002       31.11111111111113        3.695117265904601E-4
-1                        1                        31.5                     3.695117265904601E-4
-1                        0.6631497966935613       31.305555555555564       3.695117265904601E-4
-1                        0.6631497966935513       30.916666666666682       1.730130353328537E-4
-1.0000000000000002       1.0000000000000002       31.11111111111113        1.730130353328537E-4
-1                        0.6631497966935613       31.305555555555564       1.730130353328537E-4
-1                        0.6631497966935613       31.305555555555564       2.1743509176388139E-4
-1                        1                        31.5                     2.1743509176388139E-4
-1                        0.6631497966935547       31.69444444444445        2.1743509176388139E-4
-1                        0.6631497966935613       31.305555555555564       1.7620993639628184E-4
-1                        0.6631497966935547       31.69444444444445        1.7620993639628184E-4
-1                        0.326299593387116        31.500000000000007       1.7620993639628184E-4
-1                        0.326299593387116        31.500000000000007       0.0011832812844157336
-1                        0.6631497966935547       31.69444444444445        0.0011832812844157336
-1                        0.32629959338710934      31.88888888888889        0.0011832812844157336
-1                        0.010550609919332654     31.69444444444445        6.534726699317789E-4
-1                        0.326299593387116        31.500000000000007       6.534726699317789E-4
-1                        0.32629959338710934      31.88888888888889        6.534726699317789E-4
-1                        0.32629959338710934      31.88888888888889        8.544922083225181E-4