% Model:              Cav_Hex_Unif_flux_v5.2.1 - Lin. Distn.mph
% Version:            COMSOL 5.5.0.359
% Date:               Apr 1 2022, 15:28
% Dimension:          3
% Nodes:              7393
% Expressions:        1
% Description:        Surface
% x                       y                        z                        Color
-0.5                      0.49923685167231036      2.5000000000000006E-4    0
-0.5                      0.49830618893149775      2.5000000000000006E-4    0
-0.5                      0.49923685167231036      0                        0
-0.5                      0.49830618893149775      0                        0
-0.5                      0.5                      2.5000000000000006E-4    0
-0.5                      0.5                      0                        0
-0.5                      0.49716995241634726      2.5000000000000006E-4    0
-0.5                      0.49578272817999414      2.5000000000000006E-4    0
-0.4999999999999999       0.49716995241634715      0                        0
-0.5                      0.49578272817999414      0                        0
-0.5                      0.4940890745645136       2.5000000000000006E-4    0
-0.5                      0.4940890745645136       0                        0
-0.5                      0.4920213031876442       2.5000000000000006E-4    0
-0.5                      0.4920213031876442       0                        0
-0.5                      0.4894967737160218       2.5000000000000006E-4    0
-0.5                      0.4894967737160218       0                        0
-0.5                      0.48641459107030816      2.5000000000000006E-4    0
-0.5                      0.48641459107030827      0                        0
-0.5                      0.4826515730630623       0                        0
-0.4999999999999999       0.4826515730630621       2.5E-4                   0
-0.5                      0.4780573273123925       0                        0
-0.5                      0.4780573273123925       2.5000000000000006E-4    0
-0.5                      0.47244824067584046      0                        0
-0.5                      0.47244824067584024      2.5000000000000006E-4    0
-0.5                      0.4656001409868409       0                        0
-0.5                      0.4656001409868409       2.5000000000000006E-4    0
-0.5                      0.4572393378135826       0                        0
-0.5                      0.45723933781358284      2.5E-4                   0
-0.5                      0.447031684175797        0                        0
-0.4999999999999999       0.4470316841757974       2.5000000000000006E-4    0
-0.4999999999999999       -0.49830618893149764     0                        0
-0.5000000000000001       -0.49830618893149775     2.5000000000000006E-4    0
-0.5                      -0.4992368516723103      0                        0
-0.4999999999999999       -0.4992368516723103      2.5E-4                   0
-0.5                      0.43456922206180804      0                        0
-0.5                      0.43456922206180837      2.5000000000000006E-4    0
-0.5                      0.41935387802151836      0                        0
-0.5                      0.4193538780215188       2.5000000000000006E-4    0
-0.5                      -0.49716995241634726     2.5000000000000006E-4    0
-0.5000000000000001       -0.49716995241634726     0                        0
-0.5                      -0.49578272817999414     0                        0
-0.5                      -0.49578272817999414     2.500000000000001E-4     0
-0.5                      -0.5                     0                        0
-0.5                      -0.5                     2.5000000000000006E-4    0
-0.5                      -0.4940890745645135      2.5000000000000006E-4    0
-0.5000000000000001       -0.49408907456451373     0                        0
-0.5                      -0.4920213031876441      2.5000000000000006E-4    0
-0.5                      -0.4920213031876443      0                        0
-0.4999999999999999       -0.48949677371602196     0                        0
-0.4999999999999999       -0.48949677371602157     2.5000000000000006E-4    0
-0.4999999999999999       -0.48641459107030793     2.5E-4                   0
-0.5                      0.40077755721526287      0                        0
-0.5                      0.4007775572152637       2.5E-4                   0
-0.5                      0.38943769878745005      1.25E-4                  0
-0.4999999999999999       0.37809784035963734      2.5E-4                   0
-0.4999999999999998       0.37809784035963645      0                        0
-0.5                      0.35040831227621877      0                        0
-0.4999999999999999       0.35040831227622016      2.5000000000000006E-4    2.4382845890307846E-77
-0.5                      0.3335053242370727       1.2500000000000003E-4    0
-0.5                      0.3166023361979253       0                        0
-0.5                      0.3166023361979274       2.5000000000000006E-4    2.4382845890307846E-77
-0.5                      0.2959655811211156       1.2500000000000003E-4    0
-0.4999999999999999       -0.48641459107030866     0                        0
-0.5000000000000001       -0.48265157306306283     0                        0
-0.5                      -0.48265157306306194     2.500000000000001E-4     0
-0.5                      -0.4780573273123921      2.5E-4                   0
-0.4999999999999999       -0.47805732731239303     0                        0
-0.5                      -0.47244824067584        2.5000000000000006E-4    0
-0.5000000000000001       -0.47244824067584124     0                        0
-0.4999999999999999       -0.4656001409868405      2.5E-4                   0
-0.5000000000000001       -0.46560014098684205     0                        0
-0.5                      -0.457239337813584       0                        0
-0.5000000000000001       -0.4572393378135823      2.500000000000001E-4     0
-0.5                      0.27532882604430675      2.5000000000000006E-4    0
-0.5                      0.27532882604430386      0                        0
-0.5                      0.2501504800932435       1.2500000000000003E-4    0
-0.4999999999999999       -0.44703168417579664     2.5E-4                   0
-0.5000000000000001       -0.4470316841757987      0                        0
-0.5                      -0.43456922206181        0                        0
-0.5000000000000001       -0.4345692220618076      2.5000000000000006E-4    0
-0.5                      0.2249721341421841       2.5000000000000006E-4    0
-0.5                      0.2249721341421802       0                        0
-0.5                      0.19576910444252515      1.25E-4                  0
-0.5000000000000001       0.16656607474287105      2.500000000000001E-4     0
-0.5000000000000001       0.1665660747428661       0                        0
-0.5                      0.10246673042822928      0                        0
-0.4999999999999999       0.10246673042823584      2.5E-4                   0
-0.5                      0.06849153809053965      1.25E-4                  0
-0.5                      0.03451634575284345      0                        0
-0.5                      0.13451640258555006      1.2500000000000008E-4    0
-0.5000000000000001       -0.419353878021518       2.500000000000001E-4     0
-0.5000000000000002       -0.41935387802152085     0                        0
-0.5                      -0.38943769878745105     1.2500000000000003E-4    0
-0.4999999999999999       -0.400777557215266       0                        0
-0.5                      -0.3780978403596403      0                        0
-0.5                      -0.3780978403596364      2.500000000000001E-4     0
-0.5                      -0.36425307631792947     1.25E-4                  0
-0.4999999999999999       -0.40077755721526237     2.5E-4                   0
-0.5                      -1.7763568394002505E-15  1.2500000000000003E-4    0
-0.4999999999999999       -0.03451634575285327     0                        0
-0.5                      -0.06849153809054306     1.2500000000000003E-4    0
-0.5                      -0.10246673042823971     0                        0
-0.5                      -0.1665660747428751      0                        0
-0.5                      -0.16656607474286816     2.5000000000000006E-4    0
-0.5                      -0.19576910444252837     1.2500000000000003E-4    0
-0.5                      -0.1345164025855536      1.2500000000000003E-4    0
-0.5                      0.034516345752849786     2.5000000000000006E-4    0
-0.4999999999999999       -0.0345163457528464      2.5000000000000006E-4    1.90140591599738E-24
-0.5                      -0.10246673042823225     2.5000000000000006E-4    0
-0.5                      -0.3504083122762188      2.5E-4                   0
-0.5                      -0.3504083122762234      0                        0
-0.5                      -0.3166023361979259      2.5000000000000006E-4    0
-0.5                      -0.31660233619793116     0                        0
-0.5                      -0.2753288260443048      2.500000000000001E-4     0
-0.5                      -0.3335053242370747      1.25E-4                  0
-0.4999999999999999       -0.22497213414218145     2.5000000000000006E-4    0
-0.5                      -0.2501504800932462      1.2500000000000006E-4    0
-0.4999999999999998       -0.2249721341421885      0                        0
-0.4999999999999999       -0.2753288260443107      0                        0
-0.49923685167231036      -0.5                     0                        0
-0.49923685167231036      -0.5                     2.5000000000000006E-4    0
-0.49830618893149775      -0.5                     2.5000000000000006E-4    0
-0.49830618893149764      -0.5                     0                        0
-0.49716995241634726      -0.5                     2.5000000000000006E-4    0
-0.49716995241634726      -0.5                     0                        0
-0.49578272817999414      -0.5                     2.5000000000000006E-4    0
-0.49578272817999414      -0.5                     0                        0
-0.4940890745645136       -0.5                     2.5000000000000006E-4    0
-0.4940890745645136       -0.5                     0                        0
-0.4920213031876442       -0.5                     2.5000000000000006E-4    0
-0.4920213031876442       -0.4999999999999999      0                        0
-0.4894967737160218       -0.5                     2.5000000000000006E-4    0
-0.4894967737160218       -0.5                     0                        0
-0.48641459107030816      -0.5                     2.5000000000000006E-4    0
-0.48641459107030827      -0.5                     0                        0
-0.4826515730630623       -0.5                     0                        0
-0.48265157306306206      -0.5                     2.5000000000000006E-4    0
-0.4780573273123925       -0.5                     0                        0
-0.47805732731239237      -0.5                     2.5000000000000006E-4    0
-0.4724482406758403       -0.4999999999999999      0                        0
-0.47244824067584024      -0.5                     2.5000000000000006E-4    0
-0.4572393378135827       -0.5                     2.5000000000000006E-4    0
-0.45723933781358284      -0.5                     0                        0
-0.4656001409868409       -0.5                     2.5000000000000006E-4    0
-0.4656001409868409       -0.5                     0                        0
-0.4470316841757973       -0.5                     0                        0
-0.4470316841757973       -0.5                     2.5000000000000006E-4    0
-0.43456922206180837      -0.5                     0                        0
-0.4345692220618082       -0.5                     2.5000000000000006E-4    0
-0.4193538780215188       -0.5                     0                        0
-0.4193538780215187       -0.5                     2.5000000000000006E-4    0
-0.4007775572152638       -0.5                     0                        0
-0.4007775572152637       -0.5                     2.5E-4                   0
-0.3780978403596379       -0.5000000000000001      0                        0
-0.3780978403596374       -0.5                     2.5000000000000006E-4    0
-0.3504083122762206       -0.5000000000000001      0                        0
-0.3504083122762201       -0.5000000000000001      2.500000000000001E-4     0
-0.31660233619792766      -0.5                     0                        0
-0.31660233619792727      -0.5                     2.5000000000000006E-4    0
-0.2753288260443068       -0.5                     0                        0
-0.27532882604430653      -0.5                     2.5000000000000006E-4    0
-0.25015048009324503      -0.5                     1.2500000000000003E-4    0
-0.22497213414218353      -0.5                     2.5000000000000006E-4    2.4384862875207244E-36
-0.22497213414218364      -0.5                     0                        0
-0.19576910444252682      -0.5                     1.2500000000000003E-4    0
-0.16656607474287013      -0.5000000000000001      0                        0
-0.1665660747428708       -0.5000000000000001      2.500000000000001E-4     2.4384862875207244E-36
-0.13451640258555272      -0.5                     1.2500000000000006E-4    0
-0.10246673042823551      -0.5                     2.5000000000000006E-4    0
-0.1024667304282346       -0.5                     0                        0
-0.0684915380905422       -0.5                     1.2500000000000003E-4    0
-0.034516345752849335     -0.5                     2.5000000000000006E-4    1.2109489038774221E-23
-0.03451634575284889      -0.5                     0                        0
-8.881784197001252E-16    -0.5                     1.2500000000000003E-4    0
0.03451634575284712       -0.5                     2.5000000000000006E-4    0
0.10246673042823372       -0.4999999999999999      0                        0
0.10246673042823258       -0.5                     2.5000000000000006E-4    0
0.1345164025855511        -0.5                     1.2500000000000003E-4    0
0.034516345752847635      -0.5000000000000001      0                        0
0.06849153809054043       -0.5                     1.2500000000000003E-4    0
0.16656607474286816       -0.5                     2.5000000000000006E-4    0
0.16656607474286955       -0.5                     0                        0
0.1957691044425258        -0.5                     1.2500000000000003E-4    0
0.22497213414218173       -0.5                     2.5000000000000006E-4    1.9600214266333633E-44
0.2753288260443065        -0.5000000000000001      0                        0
0.2753288260443049        -0.4999999999999999      2.5E-4                   0
0.29596558112111615       -0.5                     1.25E-4                  0
0.31660233619792744       -0.5                     0                        0
0.22497213414218342       -0.5000000000000001      0                        0
0.25015048009324403       -0.5                     1.2500000000000003E-4    0
0.3166023361979259        -0.5                     2.5000000000000006E-4    0
0.33350532423707313       -0.5                     1.2500000000000003E-4    0
0.35040831227621894       -0.5                     2.5000000000000006E-4    0
0.35040831227622027       -0.5                     0                        0
0.3642530763179283        -0.5                     1.2500000000000003E-4    0
0.40077755721526365       -0.4999999999999999      0                        0
0.38943769878745005       -0.5                     1.2500000000000003E-4    0
0.40077755721526254       -0.5                     2.5000000000000006E-4    0
0.37809784035963645       -0.5                     2.5000000000000006E-4    0
0.3780978403596378        -0.5                     0                        0
0.4193538780215189        -0.4999999999999999      0                        0
0.4193538780215181        -0.5000000000000001      2.500000000000001E-4     0
0.4345692220618084        -0.5                     0                        0
0.43456922206180776       -0.5                     2.5000000000000006E-4    0
0.4470316841757973        -0.5                     0                        0
0.44703168417579664       -0.5                     2.5000000000000006E-4    0
0.45723933781358217       -0.5                     2.5000000000000006E-4    0
0.45723933781358267       -0.5                     0                        0
0.46560014098684105       -0.5000000000000001      0                        0
0.4656001409868405        -0.4999999999999999      2.5E-4                   0
0.47244824067584024       -0.4999999999999999      0                        0
0.4724482406758399        -0.5                     2.5000000000000006E-4    0
0.4780573273123921        -0.5                     2.5E-4                   0
0.4780573273123925        -0.5                     0                        0
0.48265157306306206       -0.5000000000000002      2.500000000000001E-4     0
0.48265157306306217       -0.4999999999999999      0                        0
0.48641459107030793       -0.5                     2.5000000000000006E-4    0
0.4864145910703082        -0.5                     0                        0
0.4894967737160217        -0.5000000000000001      2.500000000000001E-4     0
0.4894967737160219        -0.5                     0                        0
0.4920213031876441        -0.5                     2.5000000000000006E-4    0
0.4920213031876442        -0.5                     0                        0
0.4940890745645136        -0.5                     2.5000000000000006E-4    0
0.4940890745645135        -0.4999999999999999      0                        0
0.49578272817999414       -0.5                     2.500000000000001E-4     0
0.49578272817999425       -0.5000000000000001      0                        0
0.49716995241634726       -0.5                     2.5000000000000006E-4    0
0.49716995241634715       -0.4999999999999999      0                        0
0.49830618893149775       -0.5000000000000001      2.5000000000000006E-4    0
0.49830618893149775       -0.5000000000000001      0                        0
0.4992368516723103        -0.4999999999999999      2.5E-4                   0
0.4992368516723103        -0.4999999999999999      0                        0
0.5                       -0.5                     0                        0
0.5                       -0.5                     2.5000000000000006E-4    0
-0.4992368516723103       0.5                      0                        0
-0.4992368516723103       0.4999999999999999       2.5E-4                   0
-0.49830618893149775      0.5000000000000001       2.5000000000000006E-4    0
-0.49830618893149775      0.4999999999999999       0                        0
-0.49716995241634726      0.5                      2.5000000000000006E-4    0
-0.49716995241634726      0.5000000000000001       0                        0
-0.49578272817999414      0.5                      2.500000000000001E-4     0
-0.495782728179994        0.4999999999999999       0                        0
-0.4940890745645135       0.5                      2.5000000000000006E-4    0
-0.4940890745645135       0.4999999999999999       0                        0
-0.4920213031876441       0.5                      2.5000000000000006E-4    0
-0.48949677371602157      0.4999999999999999       2.5000000000000006E-4    0
-0.4894967737160217       0.5                      0                        0
-0.48641459107030793      0.4999999999999999       2.5E-4                   0
-0.492021303187644        0.4999999999999999       0                        0
-0.486414591070308        0.5                      0                        0
-0.48265157306306194      0.5                      2.500000000000001E-4     0
-0.482651573063062        0.4999999999999999       0                        0
-0.4780573273123921       0.5                      2.5E-4                   0
-0.47805732731239226      0.5                      0                        0
-0.47244824067584         0.5                      2.5000000000000006E-4    0
-0.4724482406758401       0.5000000000000001       0                        0
-0.4656001409868405       0.4999999999999999       2.5E-4                   0
-0.46560014098684077      0.5000000000000001       0                        0
-0.4572393378135823       0.5000000000000001       2.500000000000001E-4     0
-0.4572393378135824       0.5                      0                        0
-0.44703168417579664      0.4999999999999999       2.5E-4                   0
-0.44703168417579686      0.5                      0                        0
-0.4345692220618076       0.5000000000000001       2.5000000000000006E-4    0
-0.4345692220618076       0.4999999999999998       0                        0
-0.419353878021518        0.5000000000000001       2.500000000000001E-4     0
-0.41935387802151813      0.5                      0                        0
-0.40077755721526237      0.4999999999999999       2.5E-4                   0
-0.40077755721526265      0.5                      0                        0
0.49578272817999425       0.5                      0                        0
0.49716995241634726       0.5                      0                        0
0.49578272817999414       0.5                      2.5000000000000006E-4    0
0.49830618893149775       0.5                      0                        0
0.49923685167231036       0.5                      0                        0
0.49830618893149775       0.5                      2.5000000000000006E-4    0
0.49923685167231036       0.5                      2.5000000000000006E-4    0
-0.3780978403596364       0.5                      2.500000000000001E-4     0
-0.37809784035963634      0.5                      0                        0
0.4940890745645136        0.5                      2.5000000000000006E-4    0
0.4940890745645136        0.5                      0                        0
0.4920213031876442        0.5                      2.5000000000000006E-4    0
0.4920213031876442        0.4999999999999999       0                        0
0.4894967737160218        0.5                      2.5000000000000006E-4    0
0.48949677371602196       0.5                      0                        0
0.49716995241634726       0.5                      2.5000000000000006E-4    0
0.5                       0.5                      0                        0
0.5                       0.5                      2.5000000000000006E-4    0
-0.3504083122762188       0.5                      2.5E-4                   0
-0.3504083122762187       0.4999999999999999       0                        0
-0.33350532423707224      0.5                      1.25E-4                  0
-0.31660233619792555      0.4999999999999999       0                        0
-0.3166023361979259       0.5                      2.5000000000000006E-4    0
-0.2959655811211152       0.5                      1.2500000000000008E-4    0
0.48641459107030816       0.5                      2.5000000000000006E-4    0
0.4864145910703085        0.5                      0                        0
0.4826515730630621        0.4999999999999999       2.5E-4                   0
0.4826515730630626        0.5                      0                        0
0.4780573273123925        0.5                      2.5000000000000006E-4    0
0.4780573273123929        0.5                      0                        0
-0.2753288260443048       0.5                      2.500000000000001E-4     0
-0.2249721341421809       0.5                      0                        0
-0.1957691044425245       0.5                      1.2500000000000003E-4    0
-0.22497213414218145      0.4999999999999999       2.5000000000000006E-4    0
-0.2753288260443043       0.4999999999999999       0                        0
-0.2501504800932429       0.5                      1.2500000000000006E-4    0
0.47244824067584085       0.5                      0                        0
0.47244824067584024       0.5                      2.5000000000000006E-4    0
0.46560014098684166       0.5                      0                        0
0.4656001409868409        0.5                      2.5000000000000006E-4    0
0.45723933781358284       0.5                      2.5E-4                   0
0.45723933781358356       0.4999999999999999       0                        0
0.4470316841757974        0.4999999999999999       2.5000000000000006E-4    0
0.4470316841757983        0.5                      0                        0
0.4345692220618097        0.5                      0                        0
0.41935387802152047       0.5                      0                        0
0.4193538780215188        0.5                      2.5000000000000006E-4    0
0.40077755721526537       0.5                      0                        0
0.4007775572152637        0.5                      2.5E-4                   0
0.43456922206180837       0.5                      2.5000000000000006E-4    0
-0.16656607474286816      0.5                      2.5000000000000006E-4    0
-0.1665660747428664       0.5                      0                        0
-0.13451640258554928      0.5                      1.2500000000000003E-4    0
0.35040831227622016       0.4999999999999999       2.5000000000000006E-4    0
0.35040831227622277       0.5                      0                        0
0.37809784035963734       0.4999999999999999       2.5E-4                   0
0.37809784035963984       0.5000000000000001       0                        0
0.3166023361979306        0.5                      0                        0
0.3166023361979274        0.5                      2.5000000000000006E-4    0
0.2959655811211186        0.5                      1.2500000000000003E-4    0
0.10246673042823894       0.5                      0                        0
0.13451640258555495       0.5                      1.2500000000000008E-4    0
0.10246673042823584       0.4999999999999999       2.5E-4                   0
0.06849153809054453       0.5                      1.25E-4                  0
-0.10246673042823225      0.5                      2.5000000000000006E-4    0
-0.10246673042823035      0.5                      0                        0
-0.06849153809053832      0.5                      1.2500000000000003E-4    0
-0.0345163457528464       0.4999999999999999       2.5000000000000006E-4    0
0.034516345752849786      0.5                      2.5000000000000006E-4    0
-0.03451634575284346      0.5                      0                        0
0.03451634575285322       0.4999999999999999       0                        0
3.108624468950438E-15     0.5                      1.2500000000000003E-4    0
0.1665660747428741        0.5000000000000001       0                        0
0.19576910444252915       0.5                      1.25E-4                  0
0.22497213414218753       0.5                      0                        0
0.27532882604430986       0.5                      0                        0
0.25015048009324714       0.5                      1.2500000000000003E-4    0
0.16656607474287105       0.5000000000000001       2.500000000000001E-4     0
0.2249721341421841        0.5                      2.5000000000000006E-4    0
0.27532882604430675       0.5                      2.5000000000000006E-4    0
0.5                       0.4992368516723103       0                        0
0.4999999999999999        0.4992368516723103       2.5E-4                   0
0.5000000000000001        0.49830618893149775      2.5000000000000006E-4    0
0.5                       0.49830618893149775      0                        0
0.5                       0.49716995241634726      2.5000000000000006E-4    0
0.4999999999999999        0.49716995241634715      0                        0
0.5                       0.49578272817999414      2.500000000000001E-4     0
0.5                       0.49578272817999414      0                        0
0.5                       0.4940890745645136       2.5000000000000006E-4    0
0.5                       0.4920213031876441       2.5000000000000006E-4    0
0.4999999999999999        0.492021303187644        0                        0
0.5000000000000001        0.4894967737160217       2.500000000000001E-4     0
0.5                       0.4940890745645135       0                        0
0.5                       0.4894967737160219       0                        0
0.5                       0.48641459107030793      2.5000000000000006E-4    0
0.4999999999999999        0.48641459107030816      0                        0
0.5000000000000002        0.48265157306306206      2.500000000000001E-4     0
0.5                       0.4826515730630623       0                        0
0.5                       0.4780573273123921       2.5E-4                   0
0.4999999999999999        0.4780573273123925       0                        0
0.5                       0.4724482406758399       2.5000000000000006E-4    0
0.5                       0.4724482406758406       0                        0
0.5                       0.45723933781358217      2.5000000000000006E-4    0
0.4999999999999999        0.4572393378135831       0                        0
0.5                       0.44703168417579664      2.5000000000000006E-4    0
0.4999999999999999        0.4656001409868405       2.5E-4                   0
0.5                       0.4656001409868414       0                        0
0.5                       0.4470316841757979       0                        0
0.5                       0.43456922206180776      2.5000000000000006E-4    0
0.4999999999999999        0.434569222061809        0                        0