% Model:              Cav_Hex_Unif_flux_v5.2.1 - Lin. Distn.mph
% Version:            COMSOL 5.5.0.359
% Date:               Apr 1 2022, 15:29
% Dimension:          3
% Nodes:              21933
% Expressions:        1
% Description:        Surface
% x                       y                        z                        Color
-8                        -5.714285714285714       40.00000000000001        0.024342235589604744
-8                        -8                       40.00000000000001        0.024342235589604744
-8                        -6.402060930896978       38.36377459396184        0.024342235589604744
-8                        -6.402060930896978       38.36377459396184        0.025408766847213025
-8                        -8                       40.00000000000001        0.025408766847213025
-8                        -8                       37.50000000000001        0.025408766847213025
-8                        -4.500486605438391       38.06887297008552        0.03209243013235495
-7.999999999999998        -3.428571428571428       40                       0.03209243013235495
-8                        -5.714285714285714       40.00000000000001        0.03209243013235495
-8                        -6.402060930896978       38.36377459396184        0.014717897115246277
-8                        -4.500486605438391       38.06887297008552        0.014717897115246277
-8                        -5.714285714285714       40.00000000000001        0.014717897115246277
-8.000000000000002        -1.1428571428571426      40.000000000000014       0.030202283735428704
-8                        -2.1316282072803006E-14  37.86048423995055        0.030202283735428704
-7.999999999999998        1.142857142857142        40                       0.030202283735428704
-7.999999999999998        -3.428571428571428       40                       0.040985327840940076
-8                        -2.2857142857142705      37.86048423995055        0.040985327840940076
-8.000000000000002        -1.1428571428571426      40.000000000000014       0.040985327840940076
-8                        -2.2857142857142705      37.86048423995055        0.03298714097248027
-8                        -2.1316282072803006E-14  37.86048423995055        0.03298714097248027
-8.000000000000002        -1.1428571428571426      40.000000000000014       0.03298714097248027
-8                        -4.500486605438391       38.06887297008552        0.0373370039782891
-8                        -2.2857142857142705      37.86048423995055        0.0373370039782891
-7.999999999999998        -3.428571428571428       40                       0.0373370039782891
-8                        -2.2857142857142705      37.86048423995055        0.029682311792185462
-8                        -4.500486605438391       38.06887297008552        0.029682311792185462
-8                        -3.376754938495246       35.93897898660073        0.029682311792185462
-8                        -6.402060930896978       38.36377459396184        0.021952059153155207
-8                        -8                       37.50000000000001        0.021952059153155207
-8                        -5.79553233466671        36.25                    0.021952059153155207
-8                        -6.402060930896978       38.36377459396184        0.023903510098406744
-8                        -5.79553233466671        36.25                    0.023903510098406744
-8                        -4.500486605438391       38.06887297008552        0.023903510098406744
-8                        -4.500486605438391       38.06887297008552        0.033844923519259
-8                        -5.79553233466671        36.25                    0.033844923519259
-8                        -3.376754938495246       35.93897898660073        0.033844923519259
-8                        -8                       35.00000000000001        0.03145715862248842
-8                        -5.79553233466671        36.25                    0.03145715862248842
-8                        -8                       37.50000000000001        0.03145715862248842
-8                        -8                       35.00000000000001        0.03932861044683636
-8                        -5.947520079458901       33.63974055162765        0.03932861044683636
-8                        -5.79553233466671        36.25                    0.03932861044683636
-8                        -5.947520079458901       33.63974055162765        0.028937682669705582
-8                        -8                       35.00000000000001        0.028937682669705582
-8                        -8                       32.50000000000001        0.028937682669705582
-8                        -3.376754938495246       35.93897898660073        0.02858577506348689
-8                        -5.79553233466671        36.25                    0.02858577506348689
-8                        -4.201601899325345       34.38227414276951        0.02858577506348689
-8                        -4.201601899325345       34.38227414276951        0.0394160193004107
-8                        -5.79553233466671        36.25                    0.0394160193004107
-8                        -5.947520079458901       33.63974055162765        0.0394160193004107
-7.999999999999998        1.142857142857142        40                       0.034929272083912645
-8                        2.1053974230447285       37.86091385732175        0.034929272083912645
-7.999999999999998        3.4285714285714284       40.00000000000001        0.034929272083912645
-8                        2.1053974230447285       37.86091385732175        0.026446053453254813
-7.999999999999998        1.142857142857142        40                       0.026446053453254813
-8                        -2.1316282072803006E-14  37.86048423995055        0.026446053453254813
-7.999999999999998        3.4285714285714284       40.00000000000001        0.037705611906806616
-8                        4.390067560202983        37.64288786600582        0.037705611906806616
-8                        5.714285714285713        40.000000000000014       0.037705611906806616
-8                        2.1053974230447285       37.86091385732175        0.038524734445528765
-8                        4.390067560202983        37.64288786600582        0.038524734445528765
-7.999999999999998        3.4285714285714284       40.00000000000001        0.038524734445528765
-8                        2.7184386544383163       36.179048498877044       0.02696222862726558
-8                        4.390067560202983        37.64288786600582        0.02696222862726558
-8                        2.1053974230447285       37.86091385732175        0.02696222862726558
-8                        5.714285714285713        40.000000000000014       0.01729379483458053
-8                        6.451615696016579        38.273140348285196       0.01729379483458053
-8                        8                        40.00000000000001        0.01729379483458053
-8                        6.451615696016579        38.273140348285196       0.0202048908489017
-8                        5.714285714285713        40.000000000000014       0.0202048908489017
-8                        4.390067560202983        37.64288786600582        0.0202048908489017
-8                        -4.201601899325345       34.38227414276951        0.024516189176304305
-8                        -2.3676463451651952      33.961247290039665       0.024516189176304305
-8                        -3.376754938495246       35.93897898660073        0.024516189176304305
-8                        -2.1316282072803006E-14  37.86048423995055        0.018153799431088618
-8                        0.9547568447576271       35.88314698017775        0.018153799431088618
-8                        2.1053974230447285       37.86091385732175        0.018153799431088618
-8                        2.7184386544383163       36.179048498877044       0.02263905278716711
-8                        2.1053974230447285       37.86091385732175        0.02263905278716711
-8                        0.9547568447576271       35.88314698017775        0.02263905278716711
-8                        -2.2857142857142705      37.86048423995055        0.036266907086930936
-8                        -1.1428571428571477      35.7209684799011         0.036266907086930936
-8                        -2.1316282072803006E-14  37.86048423995055        0.036266907086930936
-8                        0.9547568447576271       35.88314698017775        0.02853775475976497
-8                        -2.1316282072803006E-14  37.86048423995055        0.02853775475976497
-8                        -1.1428571428571477      35.7209684799011         0.02853775475976497
-8                        -3.376754938495246       35.93897898660073        0.04592129071202713
-8                        -1.1428571428571477      35.7209684799011         0.04592129071202713
-8                        -2.2857142857142705      37.86048423995055        0.04592129071202713
-8                        -2.3676463451651952      33.961247290039665       0.03594287845075369
-8                        -1.1428571428571477      35.7209684799011         0.03594287845075369
-8                        -3.376754938495246       35.93897898660073        0.03594287845075369
-8                        -4.201601899325345       34.38227414276951        0.02784405172069523
-8                        -5.947520079458901       33.63974055162765        0.02784405172069523
-8                        -3.897497651756306       32.456994216291484       0.02784405172069523
-8                        -4.201601899325345       34.38227414276951        0.03228953620034095
-8                        -3.897497651756306       32.456994216291484       0.03228953620034095
-8                        -2.3676463451651952      33.961247290039665       0.03228953620034095
-8                        -5.947520079458901       33.63974055162765        0.026829445876561955
-8                        -8                       32.50000000000001        0.026829445876561955
-8                        -5.795532334666712       31.250000000000014       0.026829445876561955
-8                        -3.897497651756306       32.456994216291484       0.03402430770265028
-8                        -5.947520079458901       33.63974055162765        0.03402430770265028
-8                        -5.795532334666712       31.250000000000014       0.03402430770265028
-8                        -8                       30.000000000000014       0.04737656662388601
-8                        -5.795532334666712       31.250000000000014       0.04737656662388601
-8                        -8                       32.50000000000001        0.04737656662388601
-8                        -5.79553233466671        28.750000000000004       0.030133586763794126
-8                        -5.795532334666712       31.250000000000014       0.030133586763794126
-8                        -8                       30.000000000000014       0.030133586763794126
-8                        -1.1428571428571477      35.7209684799011         0.029155454081612023
-8                        -0.105544078635889       33.75956347048707        0.029155454081612023
-8                        0.9547568447576271       35.88314698017775        0.029155454081612023
-8                        -1.1428571428571477      35.7209684799011         0.027795987825289303
-8                        -2.3676463451651952      33.961247290039665       0.027795987825289303
-8                        -0.105544078635889       33.75956347048707        0.027795987825289303
-8                        -3.897497651756306       32.456994216291484       0.03137306302302722
-8                        -1.4816223599212393      31.508704444188094       0.03137306302302722
-8                        -2.3676463451651952      33.961247290039665       0.03137306302302722
-8                        -2.3676463451651952      33.961247290039665       0.040150024500843644
-8                        -1.4816223599212393      31.508704444188094       0.040150024500843644
-8                        -0.105544078635889       33.75956347048707        0.040150024500843644
-8                        0.9547568447576271       35.88314698017775        0.02961751845139698
-8                        2.1519305809206823       34.00951652261392        0.02961751845139698
-8                        2.7184386544383163       36.179048498877044       0.02961751845139698
-8                        2.1519305809206823       34.00951652261392        0.04607614679308306
-8                        0.9547568447576271       35.88314698017775        0.04607614679308306
-8                        -0.105544078635889       33.75956347048707        0.04607614679308306
-8                        2.7184386544383163       36.179048498877044       0.03422417740479923
-8                        4.164655390133218        35.0446439065097         0.03422417740479923
-8                        4.390067560202983        37.64288786600582        0.03422417740479923
-8                        2.7184386544383163       36.179048498877044       0.026341931700736808
-8                        2.1519305809206823       34.00951652261392        0.026341931700736808
-8                        4.164655390133218        35.0446439065097         0.026341931700736808
-8                        6.451615696016579        38.273140348285196       0.029247918017133556
-8                        8                        37.50000000000001        0.029247918017133556
-8                        8                        40.00000000000001        0.029247918017133556
-8                        6.451615696016579        38.273140348285196       0.019042207106826664
-8                        6.146332992324888        36.23408164576378        0.019042207106826664
-8                        8                        37.50000000000001        0.019042207106826664
-8                        6.451615696016579        38.273140348285196       0.026652200172811686
-8                        4.390067560202983        37.64288786600582        0.026652200172811686
-8                        6.146332992324888        36.23408164576378        0.026652200172811686
-8                        6.146332992324888        36.23408164576378        0.031019563905771957
-8                        4.390067560202983        37.64288786600582        0.031019563905771957
-8                        4.164655390133218        35.0446439065097         0.031019563905771957
-8                        -5.79553233466671        28.750000000000004       0.026059021817456292
-8                        -3.591064669333423       30.000000000000014       0.026059021817456292
-8                        -5.795532334666712       31.250000000000014       0.026059021817456292
-8                        -3.897497651756306       32.456994216291484       0.03440822484061309
-8                        -5.795532334666712       31.250000000000014       0.03440822484061309
-8                        -3.591064669333423       30.000000000000014       0.03440822484061309
-8                        -3.591064669333423       30.000000000000014       0.029750726208097253
-8                        -1.4816223599212393      31.508704444188094       0.029750726208097253
-8                        -3.897497651756306       32.456994216291484       0.029750726208097253
-8.000000000000002        -8.000000000000002       27.50000000000001        0.03455507998490695
-8                        -5.79553233466671        28.750000000000004       0.03455507998490695
-8                        -8                       30.000000000000014       0.03455507998490695
-8                        -5.795532334666707       26.25                    0.03278247722084537
-8                        -5.79553233466671        28.750000000000004       0.03278247722084537
-8.000000000000002        -8.000000000000002       27.50000000000001        0.03278247722084537
-8                        -3.7452445608631995      27.50803828669035        0.03164092944860477
-8                        -5.79553233466671        28.750000000000004       0.03164092944860477
-8                        -5.795532334666707       26.25                    0.03164092944860477
-8                        -3.7452445608631995      27.50803828669035        0.028119707016964316
-8                        -3.591064669333423       30.000000000000014       0.028119707016964316
-8                        -5.79553233466671        28.750000000000004       0.028119707016964316
-8                        -3.591064669333423       30.000000000000014       0.03909782267202279
-8                        -1.500786724540553       28.790146381800852       0.03909782267202279
-8                        -1.4816223599212393      31.508704444188094       0.03909782267202279
-8                        -3.591064669333423       30.000000000000014       0.032821065592037374
-8                        -3.7452445608631995      27.50803828669035        0.032821065592037374
-8                        -1.500786724540553       28.790146381800852       0.032821065592037374
-8                        -0.15233072355127852     30.10734900065448        0.021970557505550395
-8                        -1.4816223599212393      31.508704444188094       0.021970557505550395
-8                        -1.500786724540553       28.790146381800852       0.021970557505550395
-8                        -0.105544078635889       33.75956347048707        0.046508392749869315
-8                        1.2435079984338184       31.485634316239796       0.046508392749869315
-8                        2.1519305809206823       34.00951652261392        0.046508392749869315
-8                        -0.105544078635889       33.75956347048707        0.0508853548921071
-8                        -1.4816223599212393      31.508704444188094       0.0508853548921071
-8                        1.2435079984338184       31.485634316239796       0.0508853548921071
-8                        -0.15233072355127852     30.10734900065448        0.031539411296138346
-8                        1.2435079984338184       31.485634316239796       0.031539411296138346
-8                        -1.4816223599212393      31.508704444188094       0.031539411296138346
-8                        2.1519305809206823       34.00951652261392        0.03161918617205665
-8                        3.7845556890111585       32.58691367906808        0.03161918617205665
-8                        4.164655390133218        35.0446439065097         0.03161918617205665
-8                        2.1519305809206823       34.00951652261392        0.03558320038572625
-8                        1.2435079984338184       31.485634316239796       0.03558320038572625
-8                        3.7845556890111585       32.58691367906808        0.03558320038572625
-8                        6.146332992324888        36.23408164576378        0.021702378043240003
-8                        8                        35.00000000000001        0.021702378043240003
-8                        8                        37.50000000000001        0.021702378043240003
-8                        6.146332992324888        36.23408164576378        0.03627875054234348
-8                        5.79553233466671         33.75000000000001        0.03627875054234348
-8                        8                        35.00000000000001        0.03627875054234348
-8                        4.164655390133218        35.0446439065097         0.028891477601781766
-8                        5.79553233466671         33.75000000000001        0.028891477601781766
-8                        6.146332992324888        36.23408164576378        0.028891477601781766
-8                        5.79553233466671         33.75000000000001        0.032917550716233306
-8                        4.164655390133218        35.0446439065097         0.032917550716233306
-8                        3.7845556890111585       32.58691367906808        0.032917550716233306
-8                        3.5896233187027597       30.05036971978834        0.04925758297875338
-8                        3.7845556890111585       32.58691367906808        0.04925758297875338
-8                        1.2435079984338184       31.485634316239796       0.04925758297875338
-8                        3.7845556890111585       32.58691367906808        0.04020515702771318
-8                        5.795532334666712        31.250000000000014       0.04020515702771318
-8                        5.79553233466671         33.75000000000001        0.04020515702771318
-8                        5.795532334666712        31.250000000000014       0.04074044652489535
-8                        3.7845556890111585       32.58691367906808        0.04074044652489535
-8                        3.5896233187027597       30.05036971978834        0.04074044652489535
-7.999999999999998        -7.999999999999998       24.999999999999996       0.04046963066516627
-8                        -5.795532334666707       26.25                    0.04046963066516627
-8.000000000000002        -8.000000000000002       27.50000000000001        0.04046963066516627
-8                        -5.7955323346667145      23.75                    0.03594385453490622
-8                        -5.795532334666707       26.25                    0.03594385453490622
-7.999999999999998        -7.999999999999998       24.999999999999996       0.03594385453490622
-8                        -5.795532334666707       26.25                    0.033624324735577624
-8                        -3.837675570326166       25.0013922747078         0.033624324735577624
-8                        -3.7452445608631995      27.50803828669035        0.033624324735577624
-8                        -3.837675570326166       25.0013922747078         0.03355682356203253
-8                        -5.795532334666707       26.25                    0.03355682356203253
-8                        -5.7955323346667145      23.75                    0.03355682356203253
-8                        -5.7955323346667145      23.75                    0.0290114485397961
-8                        -3.913227322249112       22.499840606226932       0.0290114485397961
-8                        -3.837675570326166       25.0013922747078         0.0290114485397961
-8                        -3.913227322249112       22.499840606226932       0.0250569966975997
-8                        -5.7955323346667145      23.75                    0.0250569966975997
-8                        -5.795532334666712       21.25                    0.0250569966975997
-8                        -1.9508757316456413      26.256691063633475       0.028430820384980026
-8                        -1.500786724540553       28.790146381800852       0.028430820384980026
-8                        -3.7452445608631995      27.50803828669035        0.028430820384980026
-8                        -1.9508757316456413      26.256691063633475       0.03842619372836559
-8                        -3.7452445608631995      27.50803828669035        0.03842619372836559
-8                        -3.837675570326166       25.0013922747078         0.03842619372836559
-8                        -3.837675570326166       25.0013922747078         0.0364070741943442
-8                        -2.04327785890486        23.75144530563177        0.0364070741943442
-8                        -1.9508757316456413      26.256691063633475       0.0364070741943442
-8                        -2.04327785890486        23.75144530563177        0.03258107656209418
-8                        -3.837675570326166       25.0013922747078         0.03258107656209418
-8                        -3.913227322249112       22.499840606226932       0.03258107656209418
-8                        -0.1849732188908315      26.91475944035581        0.03389463739592943
-8                        -1.500786724540553       28.790146381800852       0.03389463739592943
-8                        -1.9508757316456413      26.256691063633475       0.03389463739592943
-8                        -0.1849732188908315      26.91475944035581        0.024356268770260626
-8                        -1.9508757316456413      26.256691063633475       0.024356268770260626
-8                        -0.18039652925027563     24.822323373575518       0.024356268770260626
-8                        -0.18039652925027563     24.822323373575518       0.023903615989410824
-8                        -1.9508757316456413      26.256691063633475       0.023903615989410824
-8                        -2.04327785890486        23.75144530563177        0.023903615989410824
-8                        3.5896233187027597       30.05036971978834        0.04613709668151604
-8                        1.2435079984338184       31.485634316239796       0.04613709668151604
-8                        1.1682507623342655       28.709299197440824       0.04613709668151604
-8                        -0.15233072355127852     30.10734900065448        0.04183172216655982
-8                        1.1682507623342655       28.709299197440824       0.04183172216655982
-8                        1.2435079984338184       31.485634316239796       0.04183172216655982
-8                        -0.15233072355127852     30.10734900065448        0.02282871063122965
-8                        -1.500786724540553       28.790146381800852       0.02282871063122965
-8                        1.1682507623342655       28.709299197440824       0.02282871063122965
-8                        -0.1849732188908315      26.91475944035581        0.02926542367603573
-8                        1.1682507623342655       28.709299197440824       0.02926542367603573
-8                        -1.500786724540553       28.790146381800852       0.02926542367603573
-8                        -0.1849732188908315      26.91475944035581        0.032548348873149925
-8                        1.5938788682096874       26.401390981611417       0.032548348873149925
-8                        1.1682507623342655       28.709299197440824       0.032548348873149925
-8                        -0.1849732188908315      26.91475944035581        0.0300264757095874
-8                        -0.18039652925027563     24.822323373575518       0.0300264757095874
-8                        1.5938788682096874       26.401390981611417       0.0300264757095874
-8                        3.590534183578015        27.701745718490127       0.040402510208309476
-8                        3.5896233187027597       30.05036971978834        0.040402510208309476
-8                        1.1682507623342655       28.709299197440824       0.040402510208309476
-8                        1.5938788682096874       26.401390981611417       0.0341294720348092
-8                        3.590534183578015        27.701745718490127       0.0341294720348092
-8                        1.1682507623342655       28.709299197440824       0.0341294720348092
-8                        8                        32.50000000000001        0.03892497651793317
-8                        8                        35.00000000000001        0.03892497651793317
-8                        5.79553233466671         33.75000000000001        0.03892497651793317
-8                        5.795532334666712        31.250000000000014       0.04214714846537809
-8                        8                        32.50000000000001        0.04214714846537809
-8                        5.79553233466671         33.75000000000001        0.04214714846537809
-8                        5.795532334666712        31.250000000000014       0.03706206264592466
-8                        3.5896233187027597       30.05036971978834        0.03706206264592466
-8                        5.795532334666714        28.750000000000007       0.03706206264592466
-8                        3.590534183578015        27.701745718490127       0.03514543506334553
-8                        5.795532334666714        28.750000000000007       0.03514543506334553
-8                        3.5896233187027597       30.05036971978834        0.03514543506334553
-8                        8                        30.000000000000014       0.046030092823385
-8                        8                        32.50000000000001        0.046030092823385
-8                        5.795532334666712        31.250000000000014       0.046030092823385
-8                        5.795532334666714        28.750000000000007       0.03508853229500697
-8                        8                        30.000000000000014       0.03508853229500697
-8                        5.795532334666712        31.250000000000014       0.03508853229500697
-8                        -5.795532334666714       18.750000000000004       0.0418942820802586
-8                        -5.795532334666712       21.25                    0.0418942820802586
-8                        -8                       20                       0.0418942820802586
-8                        -8                       22.5                     0.03378965902371411
-8                        -5.7955323346667145      23.75                    0.03378965902371411
-7.999999999999998        -7.999999999999998       24.999999999999996       0.03378965902371411
-8                        -8                       20                       0.037458854598099424
-8                        -5.795532334666712       21.25                    0.037458854598099424
-8                        -8                       22.5                     0.037458854598099424
-8                        -5.795532334666712       21.25                    0.02800826693195938
-8                        -5.7955323346667145      23.75                    0.02800826693195938
-8                        -8                       22.5                     0.02800826693195938
-8                        -3.9222975976591523      19.99926370581043        0.03595486904022843
-8                        -5.795532334666712       21.25                    0.03595486904022843