% Model:              Cav_Hex_Unif_flux_v5.2.1 - Lin. Distn.mph
% Version:            COMSOL 5.5.0.359
% Date:               Apr 1 2022, 15:28
% Dimension:          3
% Nodes:              11556
% Expressions:        1
% Description:        Surface
% x                       y                        z                        Color
-0.5                      -0.30000000000000004     22.500000000000007       1.2445051872310396E-4
-0.5                      -0.3064231479678707      22.37121159926831        1.2445051872310396E-4
-0.5                      -0.10000000000000005     22.500000000000004       1.2445051872310396E-4
-0.5                      0.09999999999999996      22.500000000000004       3.57042167646975E-5
-0.5                      -0.10000000000000005     22.500000000000004       3.57042167646975E-5
-0.5                      0.0023276511346288498    22.32716488030514        3.57042167646975E-5
-0.5                      -0.1558242024004829      22.30043224146578        0
-0.5                      -0.10000000000000005     22.500000000000004       0
-0.5                      -0.3064231479678707      22.37121159926831        0
-0.5                      0.0023276511346288498    22.32716488030514        1.2283842044445858E-4
-0.5                      -0.10000000000000005     22.500000000000004       1.2283842044445858E-4
-0.5                      -0.1558242024004829      22.30043224146578        1.2283842044445858E-4
-0.5                      0.0023276511346288498    22.32716488030514        3.3513408276154085E-5
-0.5                      0.1552549639750409       22.30631290168882        3.3513408276154085E-5
-0.5                      0.09999999999999996      22.500000000000004       3.3513408276154085E-5
-0.5                      0.29999999999999993      22.500000000000004       5.993365019787458E-13
-0.5                      0.30565374878472695      22.372606070198454       1.7455657565353744E-13
-0.5                      0.5                      22.500000000000004       1.8792272634431496E-13
-0.5                      0.29999999999999993      22.500000000000004       1.453768499655898E-5
-0.5                      0.09999999999999996      22.500000000000004       1.453768499655898E-5
-0.5                      0.30565374878472695      22.372606070198454       1.453768499655898E-5
-0.5                      0.1552549639750409       22.30631290168882        6.721727050668911E-14
-0.5                      0.09999999999999996      22.500000000000004       6.665537724854349E-13
-0.5                      0.08901182298014232      22.199539979627563       0
-0.5                      0.0023276511346288498    22.32716488030514        0
-0.5                      -0.07422979640028637     22.170650889861186       0
-0.5                      0.1552549639750409       22.30631290168882        3.6028907232645896E-5
-0.5                      0.27866752873332123      22.158915356236562       3.6028907232645896E-5
-0.5                      0.30565374878472695      22.372606070198454       3.6028907232645896E-5
-0.5                      0.1552549639750409       22.30631290168882        8.165198533423463E-7
-0.5                      0.08901182298014232      22.199539979627563       8.165198533423463E-7
-0.5                      0.27866752873332123      22.158915356236562       8.165198533423463E-7
-0.5                      0.5                      22.27040816326531        2.8189588080038577E-13
-0.5                      0.27866752873332123      22.158915356236562       1.1791283913339295E-17
-0.5                      -0.30000000000000004     22.500000000000007       6.571150093204448E-5
-0.5                      -0.5                     22.500000000000004       6.571150093204448E-5
-0.5                      -0.3064231479678707      22.37121159926831        6.571150093204448E-5
-0.5                      -0.5                     22.27040816326531        1.9187535116330493E-5
-0.5                      -0.3064231479678707      22.37121159926831        1.9187535116330493E-5
-0.5                      -0.5                     22.500000000000004       1.9187535116330493E-5
-0.5                      -0.3064231479678707      22.37121159926831        1.065840772640066E-5
-0.5                      -0.5                     22.27040816326531        1.065840772640066E-5
-0.5                      -0.2831726417515915      22.15702831867281        1.065840772640066E-5
-0.5                      -0.1558242024004829      22.30043224146578        5.466028435517037E-4
-0.5                      -0.3064231479678707      22.37121159926831        5.466028435517037E-4
-0.5                      -0.2831726417515915      22.15702831867281        5.466028435517037E-4
-0.5                      -0.2831726417515915      22.15702831867281        0
-0.5                      -0.5                     22.27040816326531        1.8025310008561548E-4
-0.5                      -0.5                     22.040816326530617       1.8025310008561548E-4
-0.5                      -0.2831726417515915      22.15702831867281        1.8025310008561548E-4
-0.5                      -0.3060275541817299      21.93777980443759        8.946726675728185E-10
-0.5                      -0.2831726417515915      22.15702831867281        8.946726675728185E-10
-0.5                      -0.5                     22.040816326530617       8.946726675728185E-10
-0.5                      -0.13976643388527796     22.0330480689482         1.25889465281342E-5
-0.5                      -0.07422979640028637     22.170650889861186       1.25889465281342E-5
-0.5                      -0.2831726417515915      22.15702831867281        1.25889465281342E-5
-0.5                      -0.13976643388527796     22.0330480689482         1.9147238488624453E-5
-0.5                      -0.2831726417515915      22.15702831867281        1.9147238488624453E-5
-0.5                      -0.3060275541817299      21.93777980443759        1.9147238488624453E-5
-0.5                      -0.13976643388527796     22.0330480689482         1.3011050593648185E-4
-0.5                      -0.3060275541817299      21.93777980443759        1.3011050593648185E-4
-0.5                      -0.11003924869107704     21.84028462931753        1.3011050593648185E-4
-0.5                      -0.3060275541817299      21.93777980443759        1.0301083420031552E-5
-0.5                      -0.3029677180671745      21.711697140505695       1.0301083420031552E-5
-0.5                      -0.11003924869107704     21.84028462931753        1.0301083420031552E-5
-0.5                      0.5                      22.27040816326531        5.440033561003902E-4
-0.5                      0.27866752873332123      22.158915356236562       5.440033561003902E-4
-0.5                      0.5                      22.040816326530617       5.440033561003902E-4
-0.5                      0.08901182298014232      22.199539979627563       4.883025061696455E-4
-0.5                      0.08315201152148999      22.016493629181927       4.883025061696455E-4
-0.5                      0.27866752873332123      22.158915356236562       4.883025061696455E-4
-0.5                      -0.13976643388527796     22.0330480689482         2.2589640929398775E-7
-0.5                      -0.11003924869107704     21.84028462931753        2.2589640929398775E-7
-0.5                      0.08315201152148999      22.016493629181927       2.2589640929398775E-7
-0.5                      0.08315201152148999      22.016493629181927       0
-0.5                      -0.07422979640028637     22.170650889861186       3.858641940427363E-11
-0.5                      -0.13976643388527796     22.0330480689482         3.858641940427363E-11
-0.5                      0.08315201152148999      22.016493629181927       3.858641940427363E-11
-0.5                      -0.3029677180671745      21.711697140505695       3.5692060623407834E-4
-0.5                      -0.30052221931216816     21.484642075092488       3.5692060623407834E-4
-0.5                      -0.10167320811517999     21.624741315770613       3.5692060623407834E-4
-0.5                      -0.10167320811517999     21.624741315770613       0
-0.5                      -0.11003924869107704     21.84028462931753        0
-0.5                      -0.3029677180671745      21.711697140505695       3.572201345534528E-14
-0.5                      -0.10027886801919716     21.397490899567213       1.659294311899878E-8
-0.5                      -0.10167320811517999     21.624741315770613       1.659294311899878E-8
-0.5                      -0.30052221931216816     21.484642075092488       1.659294311899878E-8
-0.5                      0.09544810712258689      21.775276472907223       2.5483731168263684E-12
-0.5                      0.08315201152148999      22.016493629181927       2.5483731168263684E-12
-0.5                      -0.11003924869107704     21.84028462931753        2.5483731168263684E-12
-0.5                      -0.11003924869107704     21.84028462931753        1.0741873097778738E-4
-0.5                      -0.10167320811517999     21.624741315770613       1.0741873097778738E-4
-0.5                      0.09544810712258689      21.775276472907223       1.0741873097778738E-4
-0.5                      0.3009378750444067       21.92602040816327        0
-0.5                      0.5                      22.040816326530617       0
-0.5                      0.3009378750444067       21.92602040816327        2.027446107544E-4
-0.5                      0.27866752873332123      22.158915356236562       2.027446107544E-4
-0.5                      0.08315201152148999      22.016493629181927       2.027446107544E-4
-0.5                      0.08315201152148999      22.016493629181927       8.25960470830376E-6
-0.5                      0.09544810712258689      21.775276472907223       8.25960470830376E-6
-0.5                      0.3009378750444067       21.92602040816327        8.25960470830376E-6
-0.5                      -0.10167320811517999     21.624741315770613       3.2717100678676247E-4
-0.5                      -0.10027886801919716     21.397490899567213       3.2717100678676247E-4
-0.5                      0.09937333793147873      21.54769028358144        3.2717100678676247E-4
-0.5                      0.09937333793147873      21.54769028358144        0
-0.5                      0.09544810712258689      21.775276472907223       0
-0.5                      0.30093787504440295      21.69642857142858        3.1220060056383934E-5
-0.5                      0.3009378750444067       21.92602040816327        3.1220060056383934E-5
-0.5                      0.09544810712258689      21.775276472907223       3.1220060056383934E-5
-0.5                      0.09544810712258689      21.775276472907223       1.6233142904002635E-5
-0.5                      0.09937333793147873      21.54769028358144        1.6233142904002635E-5
-0.5                      0.30093787504440295      21.69642857142858        1.6233142904002635E-5
-0.5                      0.3009378750444063       21.466836734693878       2.717537900765292E-4
-0.5                      0.30093787504440295      21.69642857142858        2.717537900765292E-4
-0.5                      0.09937333793147873      21.54769028358144        2.717537900765292E-4
-0.5                      0.09937333793147873      21.54769028358144        8.180019596836573E-5
-0.5                      0.1002774577387966       21.31873907751715        8.180019596836573E-5
-0.5                      0.3009378750444063       21.466836734693878       8.180019596836573E-5
-0.5                      0.1002774577387966       21.31873907751715        0
-0.5                      -0.10027886801919716     21.397490899567213       0
-0.5                      0.3009378750444063       21.466836734693878       8.222732963358674E-18
-0.5                      0.5                      21.581632653061227       8.222732963358674E-18
-0.5                      0.30093787504440295      21.69642857142858        4.111366481679337E-18
-0.5                      0.5                      21.581632653061227       8.576220419976992E-5
-0.5                      0.5                      21.81122448979593        8.576220419976992E-5
-0.5                      0.30093787504440295      21.69642857142858        8.576220419976992E-5
-0.5                      0.5                      21.81122448979593        3.174474992939369E-4
-0.5                      0.5                      22.040816326530617       3.174474992939369E-4
-0.5                      0.3009378750444067       21.92602040816327        3.174474992939369E-4
-0.5                      0.5                      21.81122448979593        0
-0.5                      -0.30052221931216816     21.484642075092488       5.39262025854851E-4
-0.5                      -0.3029677180671745      21.711697140505695       5.39262025854851E-4
-0.5                      -0.5                     21.581632653061227       5.39262025854851E-4
-0.5                      -0.5                     22.040816326530617       1.0343992075961337E-4
-0.5                      -0.5                     21.81122448979593        1.0343992075961337E-4
-0.5                      -0.3060275541817299      21.93777980443759        1.0343992075961337E-4
-0.5                      -0.5                     21.81122448979593        7.144402691069056E-14
-0.5                      -0.5                     21.581632653061227       3.572201345534528E-14
-0.5                      -0.3029677180671745      21.711697140505695       2.6933960899429074E-5
-0.5                      -0.3060275541817299      21.93777980443759        2.6933960899429074E-5
-0.5                      -0.5                     21.81122448979593        2.6933960899429074E-5
-0.5                      -0.5                     21.352040816326536       0
-0.5                      -0.30052221931216816     21.484642075092488       0
-0.5                      -0.10027886801919716     21.397490899567213       2.882062976428116E-6
-0.5                      -0.10004647800319952     21.168289299587734       2.882062976428116E-6
-0.5                      0.1002774577387966       21.31873907751715        2.882062976428116E-6
-0.5                      -0.30052221931216816     21.484642075092488       6.528137373053522E-5
-0.5                      -0.30024336469422874     21.255518194400764       6.528137373053522E-5
-0.5                      -0.10027886801919716     21.397490899567213       6.528137373053522E-5
-0.5                      -0.10004647800319952     21.168289299587734       0
-0.5                      -0.30024336469422874     21.255518194400764       0
-0.5                      -0.30024336469422874     21.255518194400764       2.531654977114418E-11
-0.5                      -0.30052221931216816     21.484642075092488       2.531654977114418E-11
-0.5                      -0.5                     21.352040816326536       2.531654977114418E-11
-0.5                      -0.5                     21.352040816326536       1.0516491355609502E-5
-0.5                      -0.5                     21.122448979591844       1.0516491355609502E-5
-0.5                      -0.30024336469422874     21.255518194400764       1.0516491355609502E-5
-0.5                      -0.5                     21.122448979591844       0
-0.5                      -0.5                     20.892857142857153       0
-0.5                      -0.30019696709856947     21.026002436637388       0
-0.5                      -0.30019696709856947     21.026002436637388       1.7348404569139076E-4
-0.5                      -0.30024336469422874     21.255518194400764       1.7348404569139076E-4
-0.5                      -0.5                     21.122448979591844       1.7348404569139076E-4
-0.5                      -0.30018970320994476     20.79641179751616        1.2098234565968271E-4
-0.5                      -0.30019696709856947     21.026002436637388       1.2098234565968271E-4
-0.5                      -0.5                     20.892857142857153       1.2098234565968271E-4
-0.5                      0.5                      21.352040816326536       2.161562525783998E-5
-0.5                      0.5                      21.581632653061227       2.161562525783998E-5
-0.5                      0.3009378750444063       21.466836734693878       2.161562525783998E-5
-0.5                      0.3009378750444063       21.237244897959194       3.569206019374643E-4
-0.5                      0.3009378750444063       21.466836734693878       3.569206019374643E-4
-0.5                      0.1002774577387966       21.31873907751715        3.569206019374643E-4
-0.5                      0.3009378750444063       21.237244897959194       7.886102211533992E-7
-0.5                      0.5                      21.352040816326536       7.886102211533992E-7
-0.5                      0.3009378750444063       21.466836734693878       7.886102211533992E-7
-0.5                      -0.30019696709856947     21.026002436637388       1.1370350899513129E-6
-0.5                      -0.30018970320994476     20.79641179751616        1.1370350899513129E-6
-0.5                      -0.10000774633386655     20.938762502312247       1.1370350899513129E-6
-0.5                      -0.10000774633386655     20.938762502312247       3.716356979991129E-6
-0.5                      -0.10004647800319952     21.168289299587734       3.716356979991129E-6
-0.5                      -0.30019696709856947     21.026002436637388       3.716356979991129E-6
-0.5                      0.1002774577387966       21.31873907751715        1.896822416142455E-4
-0.5                      0.10047462237654903      21.089332059911907       1.896822416142455E-4
-0.5                      0.3009378750444063       21.237244897959194       1.896822416142455E-4
-0.5                      0.10047462237654903      21.089332059911907       1.2007717877283425E-5
-0.5                      0.1002774577387966       21.31873907751715        1.2007717877283425E-5
-0.5                      -0.10004647800319952     21.168289299587734       1.2007717877283425E-5
-0.5                      -0.10004647800319952     21.168289299587734       2.3417560693117024E-4
-0.5                      -0.10000774633386655     20.938762502312247       2.3417560693117024E-4
-0.5                      0.10047462237654903      21.089332059911907       2.3417560693117024E-4
-0.5                      0.30093787504440583      21.007653061224495       0
-0.5                      0.3009378750444063       21.237244897959194       0
-0.5                      0.10047462237654903      21.089332059911907       0
-0.5                      0.10047462237654903      21.089332059911907       1.5273071089821164E-6
-0.5                      0.10051522948337444      20.859784034257295       1.5273071089821164E-6
-0.5                      0.30093787504440583      21.007653061224495       1.5273071089821164E-6
-0.5                      0.10051522948337444      20.859784034257295       5.440033561003893E-4
-0.5                      0.10047462237654903      21.089332059911907       5.440033561003893E-4
-0.5                      -0.10000774633386655     20.938762502312247       5.440033561003893E-4
-0.5                      0.5                      21.122448979591844       0
-0.5                      0.5                      21.352040816326536       0
-0.5                      0.5                      20.892857142857153       5.443568370823938E-4
-0.5                      0.5                      21.122448979591844       5.443568370823938E-4
-0.5                      0.30093787504440583      21.007653061224495       5.443568370823938E-4
-0.5                      -0.5                     20.892857142857153       1.2446397297563918E-7
-0.5                      -0.5                     20.66326530612246        1.2446397297563918E-7
-0.5                      -0.30018970320994476     20.79641179751616        1.2446397297563918E-7
-0.5                      -0.10000129105564437     20.70918150548742        4.956991077951329E-4
-0.5                      -0.10000774633386655     20.938762502312247       4.956991077951329E-4
-0.5                      -0.30018970320994476     20.79641179751616        4.956991077951329E-4
-0.5                      -0.10000774633386655     20.938762502312247       1.867108776146088E-9
-0.5                      -0.10000129105564437     20.70918150548742        1.867108776146088E-9
-0.5                      0.10051522948337444      20.859784034257295       1.867108776146088E-9
-0.5                      -0.30018970320994476     20.79641179751616        8.116736173068757E-7
-0.5                      -0.30019130682575146     20.56675126709318        8.116736173068757E-7
-0.5                      -0.10000129105564437     20.70918150548742        8.116736173068757E-7
-0.5                      -0.3002084596785165      20.336734621667258       3.640277162973834E-4
-0.5                      -0.30019130682575146     20.56675126709318        3.640277162973834E-4
-0.5000000000000001       -0.5000000000000001      20.433673469387767       3.640277162973834E-4
-0.5                      -0.5                     20.66326530612246        2.807848169877468E-4
-0.5000000000000001       -0.5000000000000001      20.433673469387767       2.807848169877468E-4
-0.5                      -0.30019130682575146     20.56675126709318        2.807848169877468E-4
-0.5                      -0.30019130682575146     20.56675126709318        5.976573249839561E-4
-0.5                      -0.30018970320994476     20.79641179751616        5.976573249839561E-4
-0.5                      -0.5                     20.66326530612246        5.976573249839561E-4
-0.5                      0.3009378750444067       20.778061224489807       3.0448430236653294E-5
-0.5                      0.5                      20.892857142857153       3.0448430236653294E-5
-0.5                      0.30093787504440583      21.007653061224495       3.0448430236653294E-5
-0.5                      0.3009378750444067       20.778061224489807       5.660146945687855E-6
-0.5                      0.30093787504440583      21.007653061224495       5.660146945687855E-6
-0.5                      0.10051522948337444      20.859784034257295       5.660146945687855E-6
-0.5                      0.5                      20.66326530612246        0
-0.5                      0.5                      20.892857142857153       0
-0.5                      0.3009378750444067       20.778061224489807       0
-0.5                      0.3009378750444053       20.548469387755112       0
-0.5                      0.3009378750444053       20.548469387755112       9.72409970578006E-8
-0.5                      0.3009378750444067       20.778061224489807       9.72409970578006E-8
-0.5                      0.10052328839015634      20.630201667351255       9.72409970578006E-8
-0.5                      0.10051522948337444      20.859784034257295       6.588392888023554E-7
-0.5                      0.10052328839015634      20.630201667351255       6.588392888023554E-7
-0.5                      0.3009378750444067       20.778061224489807       6.588392888023554E-7
-0.5                      0.10052328839015634      20.630201667351255       9.624897513653759E-4
-0.5                      0.10051522948337444      20.859784034257295       9.624897513653759E-4
-0.5                      -0.10000129105564437     20.70918150548742        9.624897513653759E-4
-0.5                      0.3009378750444072       20.318877551020424       2.3769146321387736E-4
-0.5                      0.3009378750444053       20.548469387755112       2.3769146321387736E-4
-0.5                      0.10055658862942873      20.40138888155683        2.3769146321387736E-4
-0.5                      0.10052328839015634      20.630201667351255       0
-0.5                      0.10055658862942873      20.40138888155683        0
-0.5                      -0.30019130682575146     20.56675126709318        2.6145295608980425E-11
-0.5                      -0.3002084596785165      20.336734621667258       2.6145295608980425E-11
-0.5                      -0.10000021517594082     20.479591475404376       2.6145295608980425E-11
-0.5                      -0.10000021517594082     20.479591475404376       2.8801300221157607E-5
-0.5                      -0.10000129105564437     20.70918150548742        2.8801300221157607E-5
-0.5                      -0.30019130682575146     20.56675126709318        2.8801300221157607E-5
-0.5                      -0.09980958438944876     20.25466260760926        6.165178025199229E-13
-0.5                      -0.10000021517594082     20.479591475404376       0
-0.5                      -0.3002084596785165      20.336734621667258       7.632171385855853E-13
-0.5                      -0.10000129105564437     20.70918150548742        2.3562254258723022E-4
-0.5                      -0.10000021517594082     20.479591475404376       2.3562254258723022E-4
-0.5                      0.10052328839015634      20.630201667351255       2.3562254258723022E-4
-0.5                      0.10055658862942873      20.40138888155683        6.914605738538925E-5
-0.5                      0.10052328839015634      20.630201667351255       6.914605738538925E-5
-0.5                      -0.10000021517594082     20.479591475404376       6.914605738538925E-5
-0.5                      -0.10000021517594082     20.479591475404376       2.222793290772058E-6
-0.5                      -0.09980958438944876     20.25466260760926        2.222793290772058E-6
-0.5                      0.10055658862942873      20.40138888155683        2.222793290772058E-6
-0.5                      0.10055658862942873      20.40138888155683        3.9554527018294125E-4
-0.5                      0.10058938396857087      20.172593045769993       3.9554527018294125E-4
-0.5                      0.3009378750444072       20.318877551020424       3.9554527018294125E-4
-0.5                      0.10058938396857087      20.172593045769993       2.2972305549619538E-7
-0.5                      0.10055658862942873      20.40138888155683        2.2972305549619538E-7
-0.5                      -0.09980958438944876     20.25466260760926        2.2972305549619538E-7
-0.5                      -0.09983674935746824     20.024404746644887       7.366608255157566E-21
-0.5                      0.10058938396857087      20.172593045769993       7.366608255157566E-21
-0.5                      0.3009378750444037       20.089285714285726       1.088662998037514E-8
-0.5                      0.3009378750444072       20.318877551020424       1.088662998037514E-8
-0.5                      0.10058938396857087      20.172593045769993       1.088662998037514E-8
-0.5000000000000001       0.5000000000000001       20.433673469387767       8.41625217614937E-6
-0.5                      0.5                      20.66326530612246        8.41625217614937E-6
-0.5                      0.3009378750444053       20.548469387755112       8.41625217614937E-6
-0.5                      0.3009378750444072       20.318877551020424       3.628789228098868E-5
-0.5000000000000001       0.5000000000000001       20.433673469387767       3.628789228098868E-5
-0.5                      0.3009378750444053       20.548469387755112       3.628789228098868E-5
-0.5000000000000001       0.5000000000000001       20.20408163265308        5.433239553487087E-12
-0.5000000000000001       0.5000000000000001       20.433673469387767       5.433239553487087E-12
-0.5                      0.3009378750444072       20.318877551020424       5.433239553487087E-12
-0.5                      0.3009378750444037       20.089285714285726       2.106826161987097E-4
-0.5000000000000001       0.5000000000000001       20.20408163265308        2.106826161987097E-4
-0.5                      0.3009378750444072       20.318877551020424       2.106826161987097E-4
-0.5000000000000001       -0.5000000000000001      20.433673469387767       4.4009801556359575E-13
-0.5000000000000001       -0.5000000000000001      20.20408163265308        4.4009801556359575E-13
-0.5                      -0.30030927945803515     20.111990158849842       1.8495534001931603E-12
-0.5                      -0.09983674935746824     20.024404746644887       1.326849138021872E-5
-0.5                      -0.09980958438944876     20.25466260760926        1.326849138021872E-5
-0.5                      -0.30030927945803515     20.111990158849842       1.326849138021872E-5
-0.5                      -0.30030927945803515     20.111990158849842       4.400870782293444E-7
-0.5                      -0.3002084596785165      20.336734621667258       4.400870782293444E-7
-0.5000000000000001       -0.5000000000000001      20.20408163265308        4.400870782293444E-7
-0.5                      -0.30030927945803515     20.111990158849842       1.491386195251294E-8
-0.5                      -0.3002084190009665      19.877551016504913       1.491386195251294E-8
-0.5                      -0.09983674935746824     20.024404746644887       1.491386195251294E-8
-0.5000000000000001       -0.5000000000000001      20.20408163265308        1.8968281355727427E-4
-0.4999999999999999       -0.4999999999999999      19.97448979591838        1.8968281355727427E-4
-0.5                      -0.30030927945803515     20.111990158849842       1.8968281355727427E-4
-0.5                      -0.3002084190009665      19.877551016504913       2.124292504470269E-6
-0.5                      -0.30030927945803515     20.111990158849842       2.124292504470269E-6
-0.4999999999999999       -0.4999999999999999      19.97448979591838        2.124292504470269E-6
-0.4999999999999999       -0.4999999999999999      19.97448979591838        6.613810812072567E-5
-0.4999999999999999       -0.4999999999999999      19.744897959183685       6.613810812072567E-5
-0.5                      -0.3002084190009665      19.877551016504913       6.613810812072567E-5