% Model:              Cav_Hex_Unif_flux_v5.2.1 - Lin. Distn.mph
% Version:            COMSOL 5.5.0.359
% Date:               Apr 1 2022, 15:29
% Dimension:          3
% Nodes:              23213
% Expressions:        1
% Description:        Surface
% x                       y                        z                        Color
-8                        -8                       2.568807339449538        0.03154904389517435
-8                        -8                       0                        0.03154904389517435
-8                        -5.751878991692467       1.8777630927603761       0.03154904389517435
-8                        -5.714285714285714       0                        0.031507586544458115
-8                        -5.751878991692467       1.8777630927603761       0.031507586544458115
-8                        -8                       0                        0.031507586544458115
-7.999999999999998        3.4285714285714284       0                        0.03814076265908088
-8                        5.714285714285713        0                        0.038140762659080875
-8                        4.482771772280385        1.976161478915639        0.03814076265908088
-8                        5.714285714285713        0                        0.024874410429835354
-8                        8                        0                        0.024874410429835354
-8                        6.399471562619208        1.7113091853722118       0.024874410429835354
-8                        6.399471562619208        1.7113091853722118       0.029020145501474574
-8                        4.482771772280385        1.976161478915639        0.029020145501474574
-8                        5.714285714285713        0                        0.029020145501474574
-8                        6.399471562619208        1.7113091853722118       0.021085208574357008
-8                        8                        0                        0.021085208574357008
-8                        8                        2.568807339449538        0.021085208574357008
-8                        -5.714285714285714       0                        0.037311615644753035
-7.999999999999998        -3.428571428571428       0                        0.037311615644753035
-8                        -5.751878991692467       1.8777630927603761       0.037311615644753035
-8                        -3.9443225766950296      2.4945305412792385       0.03233673355878595
-8                        -5.751878991692467       1.8777630927603761       0.032336733558785954
-7.999999999999998        -3.428571428571428       0                        0.03233673355878595
-8                        4.482771772280385        1.976161478915639        0.024874410429835354
-8                        2.2857142857142865       2.1395157600494485       0.024874410429835354
-7.999999999999998        3.4285714285714284       0                        0.024874410429835354
-7.999999999999998        1.142857142857142        0                        0.03814076265908089
-8                        2.2857142857142865       2.1395157600494485       0.03814076265908089
-8.000000000000002        -1.1428571428571426      0                        0.03150758654445812
-8                        -2.081111705942609       2.1580888381800727       0.03150758654445812
-7.999999999999998        -3.428571428571428       0                        0.03150758654445812
-8                        -2.081111705942609       2.1580888381800727       0.028190998487146745
-8                        -3.9443225766950296      2.4945305412792385       0.028190998487146745
-7.999999999999998        -3.428571428571428       0                        0.028190998487146745
-7.999999999999998        1.142857142857142        0                        0.032336733558785954
-8                        0.04949162397354989      2.053599333295608        0.032336733558785954
-8.000000000000002        -1.1428571428571426      0                        0.032336733558785954
-8                        -2.081111705942609       2.1580888381800727       0.03648246863042519
-8.000000000000002        -1.1428571428571426      0                        0.03648246863042519
-8                        0.04949162397354989      2.053599333295608        0.03648246863042519
-8                        0.04949162397354989      2.053599333295608        0.030678439530130268
-7.999999999999998        1.142857142857142        0                        0.030678439530130268
-8                        2.2857142857142865       2.1395157600494485       0.030678439530130268
-7.999999999999998        -7.999999999999998       5.137614678899076        0.0482148988831637
-8                        -8                       2.568807339449538        0.0482148988831637
-8                        -5.437556325565083       4.085179254842641        0.0482148988831637
-8                        -5.437556325565083       4.085179254842641        0.03233673355878597
-8                        -8                       2.568807339449538        0.03233673355878597
-8                        -3.9443225766950296      2.4945305412792385       0.019899528343868277
-8                        -5.437556325565083       4.085179254842641        0.019899528343868277
-8                        -5.751878991692467       1.8777630927603761       0.019899528343868277
-8                        -3.9443225766950296      2.4945305412792385       0.018241234315212598
-8                        -2.081111705942609       2.1580888381800727       0.018241234315212594
-8                        -3.015252568991056       3.896516348809209        0.018241234315212594
-8                        -3.9443225766950296      2.4945305412792385       0.02653270445849104
-8                        -3.015252568991056       3.896516348809209        0.02653270445849104
-8                        -5.437556325565083       4.085179254842641        0.02653270445849104
-8                        6.399471562619208        1.7113091853722118       0.023730187550062863
-8                        8                        2.568807339449538        0.023730187550062863
-8                        5.800297152393707        4.011571260002089        0.023730187550062863
-8                        6.399471562619208        1.7113091853722118       0.02404526341550751
-8                        5.800297152393707        4.011571260002089        0.02404526341550751
-8                        4.482771772280385        1.976161478915639        0.02404526341550751
-7.999999999999998        7.999999999999998        5.137614678899076        0.04055358047077452
-8                        5.800297152393707        4.011571260002089        0.04055358047077452
-8                        8                        2.568807339449538        0.04055358047077452
-8                        2.2857142857142865       2.1395157600494485       0.032336733558785954
-8                        1.0767711600789074       4.024124156444486        0.032336733558785954
-8                        2.2857142857142865       2.1395157600494485       0.02321611640117967
-8                        4.482771772280385        1.976161478915639        0.02321611640117967
-8                        3.2679849298186703       4.195720542152559        0.02321611640117967
-8                        1.0767711600789074       4.024124156444486        0.0364824686304252
-8                        2.2857142857142865       2.1395157600494485       0.0364824686304252
-8                        3.2679849298186703       4.195720542152559        0.0364824686304252
-8                        5.800297152393707        4.011571260002089        0.03814076265908089
-8                        3.2679849298186703       4.195720542152559        0.03814076265908089
-7.999999999999998        -7.999999999999998       7.706422018348614        0.04075257575421308
-7.999999999999998        -7.999999999999998       5.137614678899076        0.04075257575421308
-8                        -5.737900759791449       6.556744739717413        0.04075257575421308
-8                        -5.737900759791449       6.556744739717413        0.03533824575065269
-7.999999999999998        -7.999999999999998       5.137614678899076        0.03533824575065269
-8                        -5.437556325565083       4.085179254842641        0.03533824575065269
-8                        -1.012483832996495       3.8823122700486046       0.030678439530130268
-8                        -2.081111705942609       2.1580888381800727       0.030678439530130268
-8                        -1.012483832996495       3.8823122700486046       0.018241234315212594
-8                        -1.012483832996495       3.8823122700486046       0.026532704458491044
-8                        0.04949162397354989      2.053599333295608        0.026532704458491044
-8                        1.0767711600789074       4.024124156444486        0.026532704458491044
-8                        -1.9081920703597146      5.220903567862978        0.014095499243573364
-8                        -3.015252568991056       3.896516348809209        0.014095499243573364
-8                        -1.012483832996495       3.8823122700486046       0.014095499243573364
-8                        -3.60821298621485        5.719266072784457        0.03316588057311381
-8                        -5.737900759791449       6.556744739717413        0.03316588057311381
-8                        -5.437556325565083       4.085179254842641        0.03316588057311381
-8                        -3.015252568991056       3.896516348809209        0.029849292515802425
-8                        -3.60821298621485        5.719266072784457        0.029849292515802425
-8                        -5.437556325565083       4.085179254842641        0.029849292515802425
-8                        -1.9081920703597146      5.220903567862978        0.013266352229245522
-8                        -3.60821298621485        5.719266072784457        0.013266352229245522
-8                        -3.015252568991056       3.896516348809209        0.013266352229245522
-8                        5.954371493610645        6.567611479227153        0.0312754253804459
-7.999999999999998        7.999999999999998        5.137614678899076        0.0312754253804459
-7.999999999999998        7.999999999999998        7.706422018348614        0.0312754253804459
-7.999999999999998        7.999999999999998        5.137614678899076        0.03751061092819156
-8                        5.954371493610645        6.567611479227153        0.03751061092819156
-8                        5.800297152393707        4.011571260002089        0.03751061092819156
-8                        4.201954771881213        5.745617057745323        0.034666636669047166
-8                        5.800297152393707        4.011571260002089        0.034666636669047166
-8                        5.954371493610645        6.567611479227153        0.034666636669047166
-8                        4.201954771881213        5.745617057745323        0.02902014550147458
-8                        3.2679849298186703       4.195720542152559        0.02902014550147458
-8                        5.800297152393707        4.011571260002089        0.02902014550147458
-8                        -3.60821298621485        5.719266072784457        0.028862607568752262
-8                        -3.7047643955130933      7.897690822332982        0.028862607568752262
-8                        -5.737900759791449       6.556744739717413        0.028862607568752262
-7.999999999999998        -7.999999999999998       7.706422018348614        0.0379500588457849
-8                        -5.774676218291166       8.99082568807339         0.0379500588457849
-7.999999999999998        -7.999999999999998       10.275229357798151       0.0379500588457849
-8                        -5.737900759791449       6.556744739717413        0.041697803350547
-8                        -5.774676218291166       8.99082568807339         0.041697803350547
-7.999999999999998        -7.999999999999998       7.706422018348614        0.041697803350547
-8                        -5.774676218291166       8.99082568807339         0.039011367024124936
-8                        -5.737900759791449       6.556744739717413        0.039011367024124936
-8                        -3.7047643955130933      7.897690822332982        0.039011367024124936
-8                        -1.8422227483349882      6.914231309639107        0.029020145501474585
-8                        -3.7047643955130933      7.897690822332982        0.029020145501474585
-8                        -3.60821298621485        5.719266072784457        0.029020145501474585
-8                        -1.9081920703597146      5.220903567862978        0.02404526341550751
-8                        -1.8422227483349882      6.914231309639107        0.024045263415507508
-8                        -3.60821298621485        5.719266072784457        0.02404526341550751
-8                        -1.8422227483349882      6.914231309639107        0.021557822372523967
-8                        -1.6260405324799223      9.072730340371105        0.021557822372523967
-8                        -3.7047643955130933      7.897690822332982        0.021557822372523967
-8                        -1.012483832996495       3.8823122700486046       0.02487441042983535
-8                        1.0767711600789074       4.024124156444486        0.02487441042983535
-8                        -0.26116259222029825     5.703442617696908        0.02487441042983535
-8                        -1.9081920703597146      5.220903567862978        0.029020145501474567
-8                        -1.012483832996495       3.8823122700486046       0.029020145501474567
-8                        -0.26116259222029825     5.703442617696908        0.029020145501474567
-8                        -1.9081920703597146      5.220903567862978        0.02238696938685182
-8                        -0.26116259222029825     5.703442617696908        0.02238696938685182
-8                        -1.8422227483349882      6.914231309639107        0.02238696938685182
-8                        3.2679849298186703       4.195720542152559        0.030678439530130268
-8                        2.037238302056981        6.306721265319237        0.030678439530130268
-8                        1.0767711600789074       4.024124156444486        0.030678439530130268
-8                        4.201954771881213        5.745617057745323        0.0257035574441632
-8                        2.037238302056981        6.306721265319237        0.0257035574441632
-8                        3.2679849298186703       4.195720542152559        0.0257035574441632
-8                        -0.26116259222029825     5.703442617696908        0.03399502758744165
-8                        1.0767711600789074       4.024124156444486        0.03399502758744165
-8                        2.037238302056981        6.306721265319237        0.03399502758744165
-8                        5.954371493610645        6.567611479227153        0.0382236773605133
-7.999999999999998        7.999999999999998        7.706422018348614        0.0382236773605133
-8                        5.774676218291168        8.99082568807339         0.0382236773605133
-7.999999999999998        7.999999999999998        7.706422018348614        0.05105887314230813
-7.999999999999998        7.999999999999998        10.275229357798151       0.05105887314230813
-8                        5.774676218291168        8.99082568807339         0.05105887314230813
-8                        3.9508309703907813       7.821539807838707        0.02989074986651863
-8                        5.954371493610645        6.567611479227153        0.02989074986651863
-8                        5.774676218291168        8.99082568807339         0.02989074986651863
-8                        4.201954771881213        5.745617057745323        0.03435156080360251
-8                        5.954371493610645        6.567611479227153        0.03435156080360251
-8                        3.9508309703907813       7.821539807838707        0.03435156080360251
-8                        4.201954771881213        5.745617057745323        0.023216116401179654
-8                        3.9508309703907813       7.821539807838707        0.023216116401179654
-8                        2.037238302056981        6.306721265319237        0.023216116401179654
-8                        -3.7047643955130933      7.897690822332982        0.03202165769334132
-8                        -3.7065784202931784      10.262649538258618       0.03202165769334132
-8                        -5.774676218291166       8.99082568807339         0.03202165769334132
-8                        -3.7047643955130933      7.897690822332982        0.031350048611735785
-8                        -1.6260405324799223      9.072730340371105        0.031350048611735785
-8                        -3.7065784202931784      10.262649538258618       0.031350048611735785
-8                        5.774676218291168        8.99082568807339         0.03352241378927468
-8                        3.7768629901729014       10.274873797922623       0.03352241378927468
-8                        3.9508309703907813       7.821539807838707        0.03352241378927468
-8                        5.774676218291168        8.99082568807339         0.038107596778507224
-7.999999999999998        7.999999999999998        10.275229357798151       0.038107596778507224
-8                        5.774676218291173        11.559633027522942       0.038107596778507224
-8                        3.7768629901729014       10.274873797922623       0.033364875856552345
-8                        5.774676218291168        8.99082568807339         0.033364875856552345
-8                        5.774676218291173        11.559633027522942       0.033364875856552345
-7.999999999999998        7.999999999999998        10.275229357798151       0.04505584875857463
-7.999999999999998        7.999999999999998        12.844036697247684       0.04505584875857463
-8                        5.774676218291173        11.559633027522942       0.04505584875857463
-8                        -5.774676218291166       8.99082568807339         0.03956689552372435
-8                        -5.774676218291171       11.559633027522942       0.03956689552372435
-7.999999999999998        -7.999999999999998       10.275229357798151       0.03956689552372435
-8                        -3.7065784202931784      10.262649538258618       0.03360532849070712
-8                        -5.774676218291171       11.559633027522942       0.03360532849070712
-8                        -5.774676218291166       8.99082568807339         0.03360532849070712
-7.999999999999998        -7.999999999999998       10.275229357798151       0.031673415947322994
-8                        -5.774676218291171       11.559633027522942       0.031673415947322994
-7.999999999999998        -7.999999999999998       12.844036697247684       0.031673415947322994
-8                        0.055036086777947794     7.871354436786127        0.033995027587441655
-8                        0.055036086777947794     7.871354436786127        0.024045263415507504
-8                        -1.6260405324799223      9.072730340371105        0.024045263415507504
-8                        -1.8422227483349882      6.914231309639107        0.02321611640117967
-8                        -0.26116259222029825     5.703442617696908        0.02321611640117967
-8                        0.055036086777947794     7.871354436786127        0.02321611640117967
-8                        1.9525065015435938       8.997067476214426        0.023058578468457352
-8                        3.9508309703907813       7.821539807838707        0.023058578468457352
-8                        3.7768629901729014       10.274873797922623       0.023058578468457352
-8                        3.9508309703907813       7.821539807838707        0.035653321616097355
-8                        1.9525065015435938       8.997067476214426        0.035653321616097355
-8                        2.037238302056981        6.306721265319237        0.035653321616097355
-8                        0.055036086777947794     7.871354436786127        0.03482417460176951
-8                        2.037238302056981        6.306721265319237        0.03482417460176951
-8                        1.9525065015435938       8.997067476214426        0.03482417460176951
-8                        1.9525065015435938       8.997067476214426        0.02238696938685181
-8                        0.06588177415800978      10.233663647964875       0.022386969386851818
-8                        0.055036086777947794     7.871354436786127        0.02238696938685181
-8                        -1.6260405324799223      9.072730340371105        0.01824123431521259
-8                        0.055036086777947794     7.871354436786127        0.01824123431521259
-8                        0.06588177415800978      10.233663647964875       0.01824123431521259
-8                        -3.7065784202931784      10.262649538258618       0.023216116401179654
-8                        -1.6260405324799223      9.072730340371105        0.023216116401179654
-8                        -1.7639026693865067      11.4759112336708         0.023216116401179654
-8                        0.06588177415800978      10.233663647964875       0.028190998487146735
-8                        -1.7639026693865067      11.4759112336708         0.028190998487146728
-8                        -1.6260405324799223      9.072730340371105        0.028190998487146728
-8                        -5.774676218291171       11.559633027522942       0.028588989054023805
-8                        -3.7065784202931784      10.262649538258618       0.028588989054023805
-8                        -3.7508224467279607      12.770374921564853       0.028588989054023805
-8                        -1.7639026693865067      11.4759112336708         0.035694778966813556
-8                        -3.7508224467279607      12.770374921564853       0.035694778966813556
-8                        -3.7065784202931784      10.262649538258618       0.035694778966813556
-8                        3.7768629901729014       10.274873797922623       0.020728675358196124
-8                        1.8078573034866814       11.481434800429557       0.020728675358196124
-8                        1.9525065015435938       8.997067476214426        0.020728675358196124
-8                        0.06588177415800978      10.233663647964875       0.02404526341550751
-8                        1.9525065015435938       8.997067476214426        0.02404526341550751
-8                        1.8078573034866814       11.481434800429557       0.02404526341550751
-8                        1.8078573034866814       11.481434800429557       0.028190998487146745
-8                        -0.06167980752030822     12.66466473249013        0.028190998487146745
-8                        -1.7639026693865067      11.4759112336708         0.022386969386851824
-8                        -0.06167980752030822     12.66466473249013        0.022386969386851824
-7.999999999999998        7.999999999999998        12.844036697247684       0.03518899928807296
-8                        8                        15.412844036697228       0.03518899928807296
-8                        5.774676218291173        14.12844036697245        0.03518899928807296
-8                        5.774676218291173        11.559633027522942       0.05267570982024757
-7.999999999999998        7.999999999999998        12.844036697247684       0.05267570982024757
-8                        5.774676218291173        14.12844036697245        0.05267570982024757
-8                        5.774676218291173        11.559633027522942       0.036523925981141396
-8                        5.774676218291173        14.12844036697245        0.036523925981141396
-8                        3.549352436582353        12.844036697247695       0.036523925981141396
-8                        5.774676218291173        11.559633027522942       0.04418524439353055
-8                        3.549352436582353        12.844036697247695       0.04418524439353055
-8                        3.7768629901729014       10.274873797922623       0.04418524439353055
-8                        1.8078573034866814       11.481434800429557       0.038538753225957956
-8                        3.7768629901729014       10.274873797922623       0.038538753225957956
-8                        3.549352436582353        12.844036697247695       0.038538753225957956
-8                        3.549352436582353        12.844036697247695       0.03766814886091391
-8                        5.774676218291173        14.12844036697245        0.03766814886091391
-8                        3.549352436582332        15.412844036697248       0.03766814886091391
-8                        -5.774676218291171       11.559633027522942       0.04122518955238006
-8                        -5.774676218291171       14.12844036697245        0.04122518955238006
-7.999999999999998        -7.999999999999998       12.844036697247684       0.04122518955238006
-8                        -3.7508224467279607      12.770374921564853       0.03849729587524173
-8                        -5.774676218291171       14.12844036697245        0.03849729587524173
-8                        -5.774676218291171       11.559633027522942       0.03849729587524173
-7.999999999999998        -7.999999999999998       12.844036697247684       0.045810372541612625
-8                        -5.774676218291171       14.12844036697245        0.045810372541612625
-8                        -8                       15.412844036697228       0.045810372541612625
-8                        -5.774676218291171       14.12844036697245        0.03925181965827976
-8                        -5.774676218291168       16.697247706422004       0.03925181965827976
-8                        -8                       15.412844036697228       0.03925181965827976
-8                        -5.774676218291171       14.12844036697245        0.039566895523724374
-8                        -3.7508224467279607      12.770374921564853       0.039566895523724374
-8                        -3.844359487238713       15.301741817180094       0.039566895523724374
-8                        -3.844359487238713       15.301741817180094       0.04382871117736972
-8                        -5.774676218291168       16.697247706422004       0.04382871117736972
-8                        -5.774676218291171       14.12844036697245        0.04382871117736972
-8                        -1.9262026589132726      13.967746700712901       0.04066966105278064
-8                        -3.844359487238713       15.301741817180094       0.04066966105278064
-8                        -3.7508224467279607      12.770374921564853       0.04066966105278064
-8                        -3.7508224467279607      12.770374921564853       0.031350048611735785
-8                        -1.7639026693865067      11.4759112336708         0.031350048611735785
-8                        -1.9262026589132726      13.967746700712901       0.03135004861173578
-8                        -0.06167980752030822     12.66466473249013        0.024716872497113025
-8                        -1.9262026589132726      13.967746700712901       0.024716872497113025
-8                        -1.7639026693865067      11.4759112336708         0.024716872497113025
-8                        5.774676218291173        14.12844036697245        0.0362088501156968
-8                        8                        15.412844036697228       0.0362088501156968
-8                        5.774676218291168        16.697247706422004       0.0362088501156968
-8                        5.774676218291173        14.12844036697245        0.029932207217234885
-8                        5.774676218291168        16.697247706422004       0.029932207217234885
-8                        3.549352436582332        15.412844036697248       0.029932207217234885
-8                        -8                       15.412844036697228       0.03945081494171825
-8                        -5.774676218291168       16.697247706422004       0.03945081494171825
-8                        -8                       17.981651376146765       0.03945081494171825
-8                        -3.844359487238713       15.301741817180094       0.0375106109281916
-8                        -1.9262026589132726      13.967746700712901       0.0375106109281916
-8                        -1.9761130439336387      16.452725267584036       0.0375106109281916
-8                        8                        15.412844036697228       0.034318394923028864
-8                        8                        17.981651376146765       0.034318394923028864
-8                        5.774676218291168        16.697247706422004       0.034318394923028864
-8                        5.774676218291168        16.697247706422004       0.030761354231562718
-8                        8                        17.981651376146765       0.030761354231562718
-8                        5.774676218291173        19.266055045871532       0.030761354231562718
-8                        1.718274387355084        13.991923228525248       0.02574501479487942
-8                        3.549352436582353        12.844036697247695       0.02574501479487942
-8                        3.549352436582332        15.412844036697248       0.02574501479487942
-8                        3.549352436582353        12.844036697247695       0.02077013270891234
-8                        1.718274387355084        13.991923228525248       0.02077013270891234
-8                        1.8078573034866814       11.481434800429557       0.02077013270891234
-8                        -0.06167980752030822     12.66466473249013        0.024874410429835354