% Model:              Cav_Hex_Unif_flux_v5.2.1 - Lin. Distn.mph
% Version:            COMSOL 5.5.0.359
% Date:               Apr 1 2022, 15:28
% Dimension:          3
% Nodes:              5854
% Expressions:        1
% Description:        Surface
% x                       y                        z                        Color
-0.5                      0.0010654434290641168    2.325472876406949        6.718346412767586E-4
-0.5                      -0.09999999999999998     2.5000000000000004       6.718346412767586E-4
-0.5                      -0.15261894887488703     2.303105783608843        6.718346412767586E-4
-0.5                      0.09999999999999996      2.5000000000000004       1.5773601397192971E-4
-0.5                      -0.09999999999999998     2.5000000000000004       1.5773601397192971E-4
-0.5                      0.0010654434290641168    2.325472876406949        1.5773601397192971E-4
-0.5                      0.29999999999999993      2.5000000000000004       5.61106613139075E-13
-0.5                      0.30405781154178924      2.3723749326374324       4.060764494023197E-13
-0.5                      0.5                      2.5000000000000004       4.060764494023197E-13
-0.5                      0.09999999999999996      2.5000000000000004       2.9038898020419516E-13
-0.5                      0.5                      2.272727272727273        5.4400636683413254E-5
-0.5                      0.5                      2.5000000000000004       5.4400636683413254E-5
-0.5                      0.30405781154178924      2.3723749326374324       5.4400636683413254E-5
-0.5                      0.1535765799587514       2.3076427639284995       3.3580454080274167E-37
-0.5                      0.0010654434290641168    2.325472876406949        2.2386969386849445E-37
-0.5                      0.1535765799587514       2.3076427639284995       4.6585874921149773E-4
-0.5                      0.30405781154178924      2.3723749326374324       4.6585874921149773E-4
-0.5                      0.09999999999999996      2.5000000000000004       4.6585874921149773E-4
-0.5                      0.08317066742327217      2.209245337733728        2.2113944163382644E-8
-0.5                      0.1535765799587514       2.3076427639284995       2.2113944163382644E-8
-0.5                      0.0010654434290641168    2.325472876406949        2.2113944163382644E-8
-0.5                      0.30405781154178924      2.3723749326374324       0.0011582749810896715
-0.5                      0.27078267977867443      2.156346633056674        0.0011582749810896715
-0.5                      0.5                      2.272727272727273        0.0011582749810896715
-0.5                      0.1535765799587514       2.3076427639284995       8.291470143276675E-4
-0.5                      0.27078267977867443      2.156346633056674        8.291470143276672E-4
-0.5                      0.30405781154178924      2.3723749326374324       8.291470143276675E-4
-0.5                      0.08317066742327217      2.209245337733728        8.238835247960588E-61
-0.5                      0.27078267977867443      2.156346633056674        2.838952009813423E-33
-0.5                      -0.15261894887488703     2.303105783608843        0
-0.5                      -0.07400201242096395     2.161194415143182        1.3401176773899212E-44
-0.5000000000000001       -0.3                     2.500000000000001        1.3166552573174865E-100
-0.5                      -0.3059833424036802      2.372218926667507        0
-0.5                      -0.09999999999999998     2.5000000000000004       3.514786504437608E-13
-0.5                      -0.15261894887488703     2.303105783608843        5.667890375956376E-4
-0.5                      -0.09999999999999998     2.5000000000000004       5.667890375956376E-4
-0.5                      -0.3059833424036802      2.372218926667507        5.667890375956376E-4
-0.5000000000000001       -0.3                     2.500000000000001        1.42552473823744E-4
-0.5                      -0.5                     2.5000000000000004       1.42552473823744E-4
-0.5                      -0.3059833424036802      2.372218926667507        1.42552473823744E-4
-0.5                      -0.15261894887488703     2.303105783608843        1.7491401006946854E-8
-0.5                      -0.3059833424036802      2.372218926667507        1.7491401006946854E-8
-0.5                      -0.2832158880813658      2.1580537986521655       1.7491401006946854E-8
-0.5                      -0.15261894887488703     2.303105783608843        8.015138464738352E-10
-0.5                      -0.2832158880813658      2.1580537986521655       8.015138464738352E-10
-0.5                      -0.07400201242096395     2.161194415143182        8.015138464738352E-10
-0.5                      -0.14266338832280945     2.0182354901705097       3.88692443367145E-20
-0.5                      -0.2832158880813658      2.1580537986521655       1.6364342723657748E-18
-0.5                      0.5                      2.045454545454546        8.29147014327667E-4
-0.5                      0.5                      2.272727272727273        8.29147014327667E-4
-0.5                      0.064612229803664        2.0003704086098972       4.724754742961641E-62
-0.4999999999999999       0.4999999999999999       1.818181818181818        7.724739826123055E-4
-0.5                      0.5                      2.045454545454546        7.724739826123055E-4
-0.5                      0.2889779173569858       1.9166614190903035       7.724739826123055E-4
-0.5                      0.2889779173569858       1.9166614190903035       2.8389523688144438E-33
-0.5                      0.5                      2.045454545454546        5.677904019626846E-33
-0.5                      0.2889779173569858       1.9166614190903035       8.917692742985984E-4
-0.5                      0.27078267977867443      2.156346633056674        8.917692742985984E-4
-0.5                      0.064612229803664        2.0003704086098972       8.917692742985984E-4
-0.5                      0.2889779173569858       1.9166614190903035       4.940447228699776E-8
-0.5                      0.2969242214655066       1.689609774984928        4.940447228699776E-8
-0.4999999999999999       0.4999999999999999       1.818181818181818        4.940447228699776E-8
-0.5                      0.2969242214655066       1.689609774984928        1.674976865509772E-31
-0.5                      0.08865638142477605      1.7721515429213524       1.5087358540482772E-33
-0.5                      0.064612229803664        2.0003704086098972       0.001739469702046651
-0.5                      0.08865638142477605      1.7721515429213524       0.001739469702046651
-0.5                      0.2889779173569858       1.9166614190903035       0.001739469702046651
-0.5                      -0.11340996636453564     1.8425516029290459       3.636362660937417E-71
-0.5                      0.08865638142477605      1.7721515429213524       5.923498220295543E-4
-0.5                      0.064612229803664        2.0003704086098972       5.923498220295543E-4
-0.5                      -0.11340996636453564     1.8425516029290459       5.923498220295543E-4
-0.5                      -0.3072434849512853      1.9334406396457462       1.0399485796114685E-12
-0.5                      -0.14266338832280945     2.0182354901705097       6.716090816054173E-7
-0.5                      -0.3072434849512853      1.9334406396457462       6.716090816054173E-7
-0.5                      -0.11340996636453564     1.8425516029290459       6.716090816054173E-7
-0.5                      0.5                      1.590909090909091        2.486068400667933E-4
-0.4999999999999999       0.4999999999999999       1.818181818181818        2.486068400667933E-4
-0.5                      0.2969242214655066       1.689609774984928        2.486068400667933E-4
-0.5                      0.2969242214655066       1.689609774984928        1.3467112995506244E-5
-0.5                      0.30164081774228246      1.477272727272727        1.3467112995506244E-5
-0.5                      0.5                      1.590909090909091        1.3467112995506244E-5
-0.5                      0.5                      1.3636363636363635       6.716105739663884E-4
-0.5                      0.5                      1.590909090909091        6.716105739663884E-4
-0.5                      0.30164081774228246      1.477272727272727        6.716105739663884E-4
-0.5                      0.30164081774228246      1.477272727272727        4.994755879448351E-31
-0.5                      0.09874958598280381      1.5561895800900443       2.5124652946746478E-31
-0.5                      0.30164081774228235      1.25                     3.923384390428256E-4
-0.5                      0.5                      1.3636363636363635       3.923384390428256E-4
-0.5                      0.30164081774228246      1.477272727272727        3.923384390428256E-4
-0.4999999999999999       0.4999999999999999       1.1363636363636362       6.716090816054101E-4
-0.5                      0.5                      1.3636363636363635       6.716090816054101E-4
-0.5                      0.30164081774228235      1.25                     6.716090816054101E-4
-0.5                      0.30164081774228235      1.25                     5.461826223342298E-4
-0.5                      0.30164081774228246      1.477272727272727        5.461826223342298E-4
-0.5                      0.100436801794065        1.3296561051572573       5.461826223342298E-4
-0.5                      0.09874958598280381      1.5561895800900443       2.7778007887373827E-10
-0.5                      0.100436801794065        1.3296561051572573       2.7778007887373827E-10
-0.5                      0.30164081774228246      1.477272727272727        2.7778007887373827E-10
-0.5                      0.100436801794065        1.3296561051572573       2.207184931702352E-4
-0.5                      0.09874958598280381      1.5561895800900443       2.207184931702352E-4
-0.5                      -0.10037249906568156     1.4085052212934834       2.207184931702352E-4
-0.5                      -0.5                     2.272727272727273        8.291470143276671E-4
-0.5                      -0.3059833424036802      2.372218926667507        8.291470143276671E-4
-0.5                      -0.5                     2.5000000000000004       8.291470143276671E-4
-0.5                      -0.3059833424036802      2.372218926667507        3.654331388990419E-9
-0.5                      -0.5                     2.272727272727273        3.654331388990419E-9
-0.5                      -0.2832158880813658      2.1580537986521655       3.654331388990419E-9
-0.5                      -0.3072434849512853      1.9334406396457462       4.2338070244435036E-10
-0.5                      -0.30417166693900066     1.7181665824863912       4.2338070244435036E-10
-0.5                      -0.11340996636453564     1.8425516029290459       4.2338070244435036E-10
-0.5                      -0.30417166693900066     1.7181665824863912       1.7819179348644608E-12
-0.4999999999999999       -0.4999999999999999      1.818181818181818        3.1198408295315885E-12
-0.5                      -0.5                     2.045454545454546        5.440034105007181E-4
-0.5                      -0.2832158880813658      2.1580537986521655       5.440034105007181E-4
-0.5                      -0.5                     2.272727272727273        5.440034105007181E-4
-0.5                      -0.3072434849512853      1.9334406396457462       3.178264371574931E-4
-0.5                      -0.5                     2.045454545454546        3.178264371574931E-4
-0.4999999999999999       -0.4999999999999999      1.818181818181818        3.178264371574931E-4
-0.5                      -0.5                     2.045454545454546        4.7538258397504665E-18
-0.5                      -0.1038579856165025      1.6319585789439797       8.147846214922386E-4
-0.5                      -0.11340996636453564     1.8425516029290459       8.147846214922386E-4
-0.5                      -0.30417166693900066     1.7181665824863912       8.147846214922386E-4
-0.5                      -0.1038579856165025      1.6319585789439797       1.5162065945344366E-4
-0.5                      -0.10037249906568156     1.4085052212934834       1.5162065945344366E-4
-0.5                      0.09874958598280381      1.5561895800900443       1.5162065945344366E-4
-0.5                      0.09874958598280381      1.5561895800900443       6.789572176864608E-4
-0.5                      0.08865638142477605      1.7721515429213524       6.789572176864608E-4
-0.5                      -0.1038579856165025      1.6319585789439797       6.789572176864608E-4
-0.5                      -0.11340996636453564     1.8425516029290459       1.8679349139108806E-7
-0.5                      -0.1038579856165025      1.6319585789439797       1.8679349139108806E-7
-0.5                      0.08865638142477605      1.7721515429213524       1.8679349139108806E-7
-0.5                      -0.30417166693900066     1.7181665824863912       1.6488625449069517E-4
-0.5                      -0.3007724940529559      1.494744144698376        1.6488625449069517E-4
-0.5                      -0.1038579856165025      1.6319585789439797       1.6488625449069517E-4
-0.5                      -0.10037249906568156     1.4085052212934834       9.14230788989819E-4
-0.5                      -0.1038579856165025      1.6319585789439797       9.14230788989819E-4
-0.5                      -0.3007724940529559      1.494744144698376        9.14230788989819E-4
-0.5                      -0.3007724940529559      1.494744144698376        2.220713970967894E-13
-0.5                      -0.30038665311568213     1.2680192282267804       4.925133432060123E-17
-0.5                      -0.10037249906568156     1.4085052212934834       7.387700148090181E-17
-0.5                      0.5                      0.9090909090909092       8.120779857728544E-11
-0.4999999999999999       0.4999999999999999       1.1363636363636362       8.120779857728544E-11
-0.5                      0.3016408177422826       1.0227272727272727       8.120779857728544E-11
-0.5                      0.3016408177422826       1.0227272727272727       2.1201083510080815E-17
-0.4999999999999999       0.4999999999999999       1.1363636363636362       6.360325053024244E-17
-0.5                      0.30164081774228235      1.25                     2.1218793682324357E-17
-0.5                      0.10102417154031629      1.1042485351020117       1.7710172243542385E-20
-0.5                      0.100436801794065        1.3296561051572573       2.656525836531358E-20
-0.5                      0.5                      0.6818181818181818       8.291470143276675E-4
-0.5                      0.5                      0.9090909090909092       8.291470143276675E-4
-0.5                      0.30164081774228235      0.7954545454545456       8.291470143276675E-4
-0.5                      0.30164081774228235      0.7954545454545456       1.4318497920456918E-5
-0.5                      0.5                      0.9090909090909092       1.4318497920456918E-5
-0.5                      0.3016408177422826       1.0227272727272727       1.4318497920456918E-5
-0.5                      0.30164081774228235      0.7954545454545456       4.038666956672607E-34
-0.5                      0.10166646674774193      0.8801027011405134       1.4117867470920823E-20
-0.5                      0.10102417154031629      1.1042485351020117       3.3459212819717306E-5
-0.5                      0.10166646674774193      0.8801027011405134       3.3459212819717306E-5
-0.5                      0.3016408177422826       1.0227272727272727       3.3459212819717306E-5
-0.5                      -0.10006208317761356     1.1817205671852775       2.238696963006331E-24
-0.5                      -0.10037249906568156     1.4085052212934834       0.0020332126659464325
-0.5                      -0.10006208317761356     1.1817205671852775       0.0020332126659464325
-0.5                      0.100436801794065        1.3296561051572573       0.0020332126659464325
-0.5                      -0.3002445187085152      1.0406168536091953       3.6482220924318364E-32
-0.4999999999999999       -0.4999999999999999      1.818181818181818        2.448125530586608E-4
-0.5                      -0.5                     1.590909090909091        2.448125530586608E-4
-0.5                      -0.30417166693900066     1.7181665824863912       2.448125530586608E-4
-0.5                      -0.5                     1.590909090909091        4.4399504019733307E-13
-0.5                      -0.5                     1.590909090909091        7.542886594694206E-4
-0.5                      -0.5                     1.3636363636363635       7.542886594694206E-4
-0.5                      -0.3007724940529559      1.494744144698376        7.542886594694206E-4
-0.5                      -0.30038665311568213     1.2680192282267804       1.7579204452803128E-7
-0.5                      -0.3007724940529559      1.494744144698376        1.7579204452803128E-7
-0.5                      -0.5                     1.3636363636363635       1.7579204452803128E-7
-0.5                      -0.5                     1.3636363636363635       2.2367468801860058E-10
-0.4999999999999999       -0.4999999999999999      1.1363636363636362       2.2367468801860058E-10
-0.5                      -0.30038665311568213     1.2680192282267804       2.2367468801860058E-10
-0.5                      -0.3002445187085152      1.0406168536091953       1.4319649127407565E-4
-0.5                      -0.30038665311568213     1.2680192282267804       1.4319649127407565E-4
-0.4999999999999999       -0.4999999999999999      1.1363636363636362       1.4319649127407565E-4
-0.5                      0.5                      0.45454545454545464      0
-0.5                      0.5                      0.6818181818181818       5.405499806186949E-61
-0.5                      0.30420832724391067      0.5468845408266214       1.4565171136183057E-13
-0.5                      0.5                      0.6818181818181818       8.292623514880823E-4
-0.5                      0.30164081774228235      0.7954545454545456       8.292623514880823E-4
-0.5                      0.30420832724391067      0.5468845408266214       8.292623514880823E-4
-0.5                      0.3282680589076341       0.32125205385704836      0.0016817669658244268
-0.5                      0.5                      0.2272727272727273       0.0016817669658244268
-0.5                      0.5                      0.45454545454545464      0.0016817669658244268
-0.5                      0.5                      0.45454545454545464      6.716090816054106E-4
-0.5                      0.30420832724391067      0.5468845408266214       6.716090816054106E-4
-0.5                      0.3282680589076341       0.32125205385704836      6.716090816054106E-4
-0.5                      0.36029899125103565      0.1369888954406923       3.243636110718659E-5
-0.5                      0.5                      0                        3.243636110718659E-5
-0.5                      0.5                      0.2272727272727273       3.243636110718659E-5
-0.5                      0.36029899125103565      0.1369888954406923       1.4038145497122251E-5
-0.5                      0.5                      0.2272727272727273       1.4038145497122251E-5
-0.5                      0.3282680589076341       0.32125205385704836      1.4038145497122251E-5
-0.5                      0.36029899125103565      0.1369888954406923       3.7221660172279344E-6
-0.5                      0.3282680589076341       0.32125205385704836      3.7221660172279344E-6
-0.5                      0.19969266632802785      0.17054067838485065      3.7221660172279344E-6
-0.5                      0.36029899125103565      0.1369888954406923       7.164397201510842E-19
-0.5                      0.29999999999999993      0                        7.164397201510842E-19
-0.5                      0.5                      0                        1.4328794403021684E-18
-0.5                      0.19969266632802785      0.17054067838485065      5.006481438650142E-40
-0.5                      -0.10001034719626899     0.9545291854399705       3.988153839479219E-9
-0.5                      -0.10006208317761356     1.1817205671852775       3.988153839479219E-9
-0.5                      -0.3002445187085152      1.0406168536091953       3.988153839479219E-9
-0.5                      -0.10006208317761356     1.1817205671852775       1.696899067557275E-4
-0.5                      -0.10001034719626899     0.9545291854399705       1.696899067557275E-4
-0.5                      0.10102417154031629      1.1042485351020117       1.696899067557275E-4
-0.5                      0.10166646674774193      0.8801027011405134       1.2855717614531259E-9
-0.5                      0.10102417154031629      1.1042485351020117       1.2855717614531259E-9
-0.5                      -0.10001034719626899     0.9545291854399705       1.2855717614531259E-9
-0.5                      0.30420832724391067      0.5468845408266214       0.001143945985320661
-0.5                      0.30164081774228235      0.7954545454545456       0.001143945985320661
-0.5                      0.10473763094351285      0.6396065319843718       0.001143945985320661
-0.5                      0.10166646674774193      0.8801027011405134       8.291910788827136E-4
-0.5                      0.10473763094351285      0.6396065319843718       8.291910788827136E-4
-0.5                      0.30164081774228235      0.7954545454545456       8.291910788827136E-4
-0.5                      0.10473763094351285      0.6396065319843718       2.823573494184124E-20
-0.5                      -0.09457033892587896     0.7353160492042872       2.823573494184124E-20
-0.5                      -0.10001034719626899     0.9545291854399705       1.4098791340282657E-4
-0.5                      -0.09457033892587896     0.7353160492042872       1.4098791340282657E-4
-0.5                      0.10166646674774193      0.8801027011405134       1.4098791340282657E-4
-0.5                      -0.3002445187085152      1.0406168536091953       8.291470143708933E-4
-0.5                      -0.299727710148449       0.8121019204662367       8.291470143708933E-4
-0.5                      -0.10001034719626899     0.9545291854399705       8.291470144141192E-4
-0.5                      -0.09457033892587896     0.7353160492042872       8.344998219955074E-4
-0.5                      -0.10001034719626899     0.9545291854399705       8.344998219955074E-4
-0.5                      -0.299727710148449       0.8121019204662367       8.344998219955074E-4
-0.4999999999999999       -0.4999999999999999      1.1363636363636362       0
-0.5                      -0.5                     0.9090909090909092       1.8133445203347083E-21
-0.5                      -0.5                     0.9090909090909092       8.291470143276674E-4
-0.5                      0.3282680589076341       0.32125205385704836      2.9130342272366114E-13
-0.5                      0.10811783346686088      0.3791880715039605       9.710114090788705E-14
-0.5                      0.3282680589076341       0.32125205385704836      7.93101809918644E-10
-0.5                      0.10811783346686088      0.3791880715039605       7.93101809918644E-10
-0.5                      0.19969266632802785      0.17054067838485065      7.93101809918644E-10
-0.5                      0.30420832724391067      0.5468845408266214       8.291470143276674E-4
-0.5                      0.10473763094351285      0.6396065319843718       8.291470143276674E-4
-0.5                      0.10811783346686088      0.3791880715039605       8.291470143276674E-4
-0.5                      0.015481523383026663     0.18422674574761905      1.1117933419298202E-120
-0.5                      0.19969266632802785      0.17054067838485065      5.290022862078744E-5
-0.5                      0.09999999999999996      0                        5.290022862078744E-5
-0.5                      0.29999999999999993      0                        5.290022862078744E-5
-0.5                      0.19969266632802785      0.17054067838485065      0.0011117708997600954
-0.5                      0.015481523383026663     0.18422674574761905      0.0011117708997600954
-0.5                      0.09999999999999996      0                        0.0011117708997600954
-0.5                      -0.09457033892587896     0.7353160492042872       1.0826308934760081E-11
-0.5                      -0.0898986834723885      0.5032673120301273       1.0826308934760081E-11
-0.5                      0.10473763094351285      0.6396065319843718       1.0826308934760081E-11
-0.5                      -0.0898986834723885      0.5032673120301273       1.1886989987529326E-10
-0.5                      0.10811783346686088      0.3791880715039605       1.1886989987529326E-10
-0.5                      0.10473763094351285      0.6396065319843718       1.1886989987529326E-10
-0.5                      -0.07813795540034874     0.31949168043679066      1.7629843165752133E-18
-0.5                      -0.0898986834723885      0.5032673120301273       2.64447647486282E-18
-0.5                      -0.299727710148449       0.8121019204662367       1.2070870019036284E-4
-0.5                      -0.29127843035023093     0.5884560757958074       1.2070870019036284E-4
-0.5                      -0.09457033892587896     0.7353160492042872       1.2070870019036284E-4
-0.5                      -0.0898986834723885      0.5032673120301273       0.001923755704735623
-0.5                      -0.09457033892587896     0.7353160492042872       0.001923755704735623
-0.5                      -0.29127843035023093     0.5884560757958074       0.001923755704735623
-0.5                      -0.5                     0.9090909090909092       3.68173259427366E-5
-0.5                      -0.5                     0.6818181818181818       3.68173259427366E-5
-0.5                      -0.299727710148449       0.8121019204662367       3.68173259427366E-5
-0.5                      -0.29127843035023093     0.5884560757958074       6.71609178461335E-4
-0.5                      -0.299727710148449       0.8121019204662367       6.71609178461335E-4
-0.5                      -0.5                     0.6818181818181818       6.71609178461335E-4
-0.5                      -0.07813795540034874     0.31949168043679066      5.147321275005047E-11
-0.5                      -0.1480765149107347      0.21872651564213402      5.147321275005047E-11
-0.5                      0.015481523383026663     0.18422674574761905      5.147321275005047E-11
-0.5                      0.09999999999999996      0                        0.0012640748573385214
-0.5                      0.015481523383026663     0.18422674574761905      0.0012640748573385214
-0.5                      -0.09999999999999998     0                        0.0012640748573385214
-0.5                      -0.1480765149107347      0.21872651564213402      7.0409804726801E-35
-0.5                      -0.09999999999999998     0                        7.0409804726801E-35
-0.5                      -0.0898986834723885      0.5032673120301273       2.6191378376028455E-9
-0.5                      -0.29127843035023093     0.5884560757958074       2.6191378376028455E-9
-0.5                      -0.26566970549783897     0.3544091870017854       2.6191378376028455E-9
-0.5                      -0.26566970549783897     0.3544091870017854       1.7629843165752133E-18
-0.5                      -0.5                     0.6818181818181818       1.4044082699120249E-11
-0.5                      -0.5                     0.45454545454545464      1.4044082699120249E-11
-0.5                      -0.29127843035023093     0.5884560757958074       1.4044082699120249E-11
-0.5                      -0.29127843035023093     0.5884560757958074       8.291470143276671E-4
-0.5                      -0.5                     0.45454545454545464      8.291470143276671E-4
-0.5                      -0.26566970549783897     0.3544091870017854       8.291470143276671E-4
-0.5                      -0.1480765149107347      0.21872651564213402      8.310134229554454E-4
-0.5                      -0.26566970549783897     0.3544091870017854       8.310134229554454E-4
-0.5                      -0.3013663785963339      0.16082069902357987      8.310134229554454E-4
-0.5                      -0.3013663785963339      0.16082069902357987      7.040980490788433E-35
-0.5000000000000001       -0.3                     0                        8.835767161601051E-6
-0.5                      -0.09999999999999998     0                        8.835767161601051E-6
-0.5                      -0.3013663785963339      0.16082069902357987      8.835767161601051E-6
-0.5                      -0.5                     0.45454545454545464      7.82656033877257E-8
-0.5                      -0.5                     0.2272727272727273       7.82656033877257E-8
-0.5                      -0.26566970549783897     0.3544091870017854       7.82656033877257E-8
-0.5                      -0.5                     0.2272727272727273       3.621666589182503E-43
-0.5000000000000001       -0.3                     0                        2.4880361383273396E-4
-0.5                      -0.3013663785963339      0.16082069902357987      2.4880361383273396E-4
-0.5                      -0.5                     0                        2.4880361383273396E-4
-0.5                      -0.5                     0.2272727272727273       8.291470143276671E-4
-0.5                      -0.5                     0                        8.291470143276673E-4
-0.5                      -0.3013663785963339      0.16082069902357987      8.291470143276673E-4