% Model:              Cav_Hex_Unif_flux_v5.1 - Base Case.mph
% Version:            COMSOL 5.5.0.359
% Date:               Dec 2 2021, 14:29
% Dimension:          1
% Nodes:              388
% Expressions:        1
% Description:        Line graph
% x                       Height
0                         52943.172745827396
0.12919896640826892       52943.172745827396
0.25839793281653783       52943.172745827396
0.3875968992248067        47788.425901342125
0.5167958656330757        42633.679056856854
0.6459948320413446        42633.679056856854
0.7751937984496134        37484.12221667243
0.9043927648578824        32334.565376488008
1.0335917312661513        32334.565376488008
1.1627906976744202        28132.403530613687
1.2919896640826893        23930.24168473937
1.4211886304909587        23930.24168473937
1.5503875968992276        17823.063612816146
1.6795865633074964        11715.885540892923
1.808785529715765         11715.885540892923
1.9379844961240338        24929.419448536508
2.067183462532303         38142.95335618009
2.1963824289405722        38142.95335618009
2.325581395348841         33428.69667505992
2.4547803617571096        28714.43999393974
2.5839793281653782        28714.43999393974
2.713178294573647         36874.7400767017
2.842377260981916         45035.040159463664
2.9715762273901847        45035.040159463664
3.1007751937984542        42426.73405023613
3.229974160206723         39818.4279410086
3.359173126614992         39818.4279410086
3.4883720930232607        29841.02761408459
3.61757105943153          19863.627287160576
3.7467700258397985        19863.627287160576
3.8759689922480676        18120.38456653947
4.005167958656337         16377.141845918359
4.134366925064606         16377.141845918359
4.263565891472875         20927.796049598008
4.392764857881145         25478.450253277657
4.521963824289413         25478.450253277657
4.651162790697682         28546.20203228901
4.780361757105951         31613.953811300362
4.909560723514219         31613.953811300362
5.038759689922489         26502.591754305555
5.167958656330757         21391.22969731075
5.297157622739025         21391.22969731075
5.426356589147294         19094.961059231733
5.555555555555563         16798.69242115271
5.684754521963834         16798.69242115271
5.813953488372103         16064.45342157675
5.943152454780371         15330.21442200079
6.07235142118864          15330.21442200079
6.2015503875969085        17550.279563822456
6.330749354005178         19770.344705644122
6.459948320413446         19770.344705644122
6.5891472868217145        22330.25519565584
6.718346253229984         24890.16568566756
6.847545219638252         24890.16568566756
6.9767441860465205        14759.475299936545
7.105943152454789         4628.784914205526
7.235142118863058         4628.784914205526
7.364341085271327         4379.719790462557
7.493540051679596         4130.654666719588
7.622739018087865         4130.654666719588
7.751937984496134         2700.430339565154
7.881136950904404         1270.2060124107206
8.010335917312672         1270.2060124107206
8.139534883720941         1539.8187223650907
8.26873385012921          1809.431432319461
8.397932816537478         1809.431432319461
8.527131782945748         3711.0735646346984
8.656330749354016         5612.715696949936
8.785529715762287         5612.715696949936
8.914728682170555         9018.343407708373
9.043927648578824         12423.97111846681
9.173126614987092         12423.97111846681
9.302325581395362         7984.343112372852
9.431524547803633         3544.715106278895
9.560723514211901         3544.715106278895
9.689922480620169         11175.041596061787
9.819121447028438         18805.36808584468
9.948320413436704         18805.36808584468
10.077519379844974        11696.93173748546
10.206718346253245        4588.49538912624
10.335917312661513        4588.49538912624
10.465116279069782        2314.3894846433623
10.594315245478052        40.283580160484256
10.723514211886322        40.283580160484256
10.85271317829459         1788.6450408576775
10.981912144702857        3537.0065015548707
11.111111111111127        3537.0065015548707
11.240310077519394        1768.503252204243
11.369509043927666        2.8536149434928755E-6
11.498708010335934        2.8536149434928755E-6
11.627906976744203        1.701075878395601
11.757105943152473        3.4021489031762586
11.886304909560739        3.4021489031762586
12.01550387596901         67.63918160775167
12.14470284237728         131.87621431232708
12.273901808785547        131.87621431232708
12.403100775193817        286.6299160758698
12.532299741602085        441.38361783941247
12.661498708010352        441.38361783941247
12.790697674418618        221.19545842367228
12.91989664082689         1.0072990079320798
13.04909560723516         1.0072990079320798
13.178294573643429        0.6188327464418494
13.307493540051702        0.23036648495161885
13.436692506459968        0.23036648495161885
13.565891472868238        0.11623213477685215
13.695090439276505        0.0020977846020854515
13.824289405684771        0.0020977846020854515
13.95348837209304         5894.893705877187
14.08268733850131         11789.785313969773
14.21188630490958         11789.785313969773
14.341085271317848        13495.413702543883
14.470284237726116        15201.042091117995
14.599483204134383        15201.042091117995
14.72868217054265         7602.841790537744
14.85788113695092         4.641489957491938
14.987080103359192        4.641489957491938
15.116279069767462        2.435816902121548
15.245478036175733        0.23014384675115834
15.374677002583999        0.23014384675115834
15.503875968992265        67.21854736370854
15.633074935400534        134.20695088066591
15.762273901808802        134.20695088066591
15.891472868217072        71.36539858882098
16.02067183462534         8.523846296976055
16.149870801033607        8.523846296976055
16.279069767441875        18.475868084481824
16.408268733850143        28.427889871987595
16.537467700258414        28.427889871987595
16.666666666666682        14.213944935993938
16.795865633074953        2.817589223645233E-13
16.92506459948322         2.817589223645233E-13
17.05426356589149         0.003386566717974387
17.18346253229976         0.006773133435667015
17.312661498708025        0.006773133435667015
17.441860465116292        0.003673741449647469
17.57105943152456         5.743494636279222E-4
17.700258397932828        5.743494636279222E-4
17.829457364341096        2.871754257038617E-4
17.958656330749367        1.3877798011727145E-9
18.087855297157635        1.3877798011727145E-9
18.217054263565906        3.8389989912331313E-19
18.346253229974177        3.8389989912331313E-19
18.47545219638245         3.8389989912331313E-19
18.604651162790717        526.163344115331
18.733850129198988        1052.326688230662
18.863049095607256        1052.326688230662
18.99224806201552         526.1737005884332
19.12144702842379         0.020712946204444093
19.250645994832063        0.020712946204444093
19.379844961240327        0.020712946501652407
19.509043927648598        0.020712946501652407
19.638242894056862        0.020712946501652407
19.767441860465134        0.010381645641645235
19.896640826873405        5.034478163806354E-5
20.025839793281673        5.034478163806354E-5
20.155038759689944        2.5172390821980436E-5
20.284237726098212        5.89733237285139E-15
20.413436692506483        5.89733237285139E-15
20.54263565891475         4.2967495193379435
20.671834625323022        8.593499038675882
20.801033591731287        8.593499038675882
20.93023255813955         1758.1745641205644
21.059431524547822        3507.755629202453
21.18863049095609         3507.755629202453
21.317829457364358        2485.2793845040173
21.44702842377263         1462.803139805582
21.576227390180897        1462.803139805582
21.705426356589168        731.4015699028412
21.83462532299744         1.003166630870107E-10
21.9638242894057          1.003166630870107E-10
22.09302325581397         1.1007708843951183E-8
22.22222222222224         1.1007708843951183E-8
22.35142118863051         1.1007708843951183E-8
22.48062015503878         47.35470324085423
22.60981912144705         94.70940647070074
22.73901808785532         94.70940647070074
22.868217054263592        48.63328016155184
22.99741602067186         2.5571538524029322
23.126614987080124        2.5571538524029322
23.25581395348839         1.8922938507775537
23.385012919896663        1.2274338491521752
23.51421188630493         1.2274338491521752
23.643410852713203        0.6827600969383946
23.772609819121474        0.1380863447246139
23.901808785529735        0.1380863447246139
24.031007751938002        0.0693227971400822
24.160206718346274        5.59249555550495E-4
24.289405684754545        5.59249555550495E-4
24.418604651162813        3.0479105199489103E-4
24.547803617571084        5.033254843928711E-5
24.67700258397935         5.033254843928711E-5
24.806201550387616        9.601933156616637E-4
24.935400516795887        0.0018700540828840402
25.064599483204155        0.0018700540828840402
25.193798449612423        9.60397117540569E-4
25.322997416020694        5.074015219709769E-5
25.45219638242896         5.074015219709769E-5
25.581395348837233        2.5370076143724273E-5
25.7105943152455          9.035085882997129E-14
25.83979328165377         9.035085882997129E-14
25.968992248062037        5.5073268145704764E-27
26.098191214470308        5.5073268145704764E-27
26.227390180878576        5.5073268145704764E-27
26.356589147286847        1753.8778137181823
26.48578811369512         3507.7556274363646
26.614987080103386        3507.7556274363646
26.744186046511654        1801.2325153680529
26.873385012919922        94.70940329974125
27.002583979328186        94.70940329974125
27.131782945736447        47.354701649870776
27.26098191214472         3.011656423933736E-13
27.390180878552986        3.011656423933736E-13
27.519379844961257        1753.877813717678
27.648578811369532        3507.7556274353556
27.777777777777796        3507.7556274353556
27.906976744186068        1753.8778137176778
28.03617571059434         1.1514452246231044E-19
28.165374677002607        1.1514452246231044E-19
28.29457364341088         1.2785769262002322
28.423772609819146        2.5571538524004644
28.552971576227417        2.5571538524004644
28.68217054263568         1.2785769262002322
28.811369509043956        6.11925201618935E-26
28.940568475452224        6.11925201618935E-26
29.069767441860492        4.697364259989593E-31
29.19896640826876         4.697364259989593E-31
29.328165374677024        4.697364259989593E-31
29.45736434108529         3.889236535534796E-22
29.586563307493563        3.889236535534796E-22
29.715762273901827        3.889236535534796E-22
29.844961240310095        8.024619747156313E-12
29.974160206718366        8.024619747156313E-12
30.103359173126634        8.024619747156313E-12
30.23255813953491         1.0363007021607873E-20
30.36175710594318         1.0363007021607873E-20
30.49095607235145         1.0363007021607873E-20
30.62015503875972         1.2801907488951749E-36
30.74935400516799         1.2801907488951749E-36
30.878552971576255        1.2801907488951749E-36
31.00775193798452         1.1007708843836256E-8
31.136950904392787        1.1007708843836256E-8
31.266149870801048        1.1007708843836256E-8
31.39534883720932         2.6435168737674195E-27
31.524547803617597        2.6435168737674195E-27
31.653746770025872        2.6435168737674195E-27
31.782945736434144        1.865341263892452E-21
31.91214470284241         1.865341263892452E-21
32.04134366925067         1.865341263892452E-21
32.17054263565894         1.835775692661439E-26
32.29974160206721         1.835775692661439E-26
32.428940568475475        1.835775692661439E-26
32.55813953488374         5.760858371377541E-38
32.68733850129202         5.760858371377541E-38
32.81653746770028         5.760858371377541E-38
32.945736434108554        2.926821291723602E-33
33.07493540051682         2.926821291723602E-33
33.20413436692508         2.926821291723602E-33
33.33333333333336         9.320825791999483E-4
33.462532299741625        0.0018641651583998966
33.59173126614989         0.0018641651583998966
33.72093023255816         9.320825791999483E-4
33.850129198966435        1.0062769982178324E-24
33.979328165374696        1.0062769982178324E-24
34.108527131782964        2.166647331734186E-13
34.237726098191246        2.166647331734186E-13
34.36692506459951         2.166647331734186E-13
34.49612403100778         8.28937602647487E-15
34.62532299741605         8.28937602647487E-15
34.75452196382431         8.28937602647487E-15
34.88372093023257         2.008687109557317E-48
35.01291989664084         2.008687109557317E-48
35.14211886304911         2.008687109557317E-48
35.27131782945738         1.7142302451723562E-52
35.40051679586565         1.7142302451723562E-52
35.529715762273916        1.7142302451723562E-52
35.658914728682184        0.0031069419306665015
35.78811369509045         0.006213883861333003
35.91731266149873         0.006213883861333003
36.046511627906995        0.0031069419306665015
36.17571059431526         8.394035687502947E-23
36.30490956072353         8.394035687502947E-23
36.4341085271318          4.4609347838116075E-29
36.56330749354007         4.4609347838116075E-29
36.69250645994833         4.4609347838116075E-29
36.82170542635661         1.5791732632618464E-29
36.95090439276488         1.5791732632618464E-29
37.080103359173144        1.5791732632618464E-29
37.20930232558142         6.889665845027629E-28
37.338501291989694        6.889665845027629E-28
37.467700258397954        6.889665845027629E-28
37.59689922480622         2.9720813878357196E-10
37.7260981912145          2.9720813878357196E-10
37.85529715762276         2.9720813878357196E-10
37.984496124031025        2.755401138281227E-45
38.1136950904393          2.755401138281227E-45
38.24289405684756         2.755401138281227E-45
38.37209302325582         4.956594133113397E-28
38.5012919896641          4.956594133113397E-28
38.630490956072364        4.956594133113397E-28
38.75968992248063         2.5182107062508135E-23
38.8888888888889          2.5182107062508135E-23
39.01808785529717         2.5182107062508135E-23
39.147286821705436        2.0086871095573685E-48
39.2764857881137          2.0086871095573685E-48
39.40568475452197         2.0086871095573685E-48
39.53488372093024         1.1414595151682471E-33
39.66408268733851         1.1414595151682471E-33
39.79328165374678         1.1414595151682471E-33
39.92248062015505         6.695623698524221E-48
40.05167958656332         6.695623698524221E-48
40.18087855297159         6.695623698524221E-48
40.31007751937987         3.45433567386939E-20
40.439276485788135        3.45433567386939E-20
40.568475452196395        3.45433567386939E-20
40.69767441860467         1.4215373143495476E-17
40.82687338501294         1.4215373143495476E-17
40.956072351421206        1.4215373143495476E-17
41.08527131782948         5.188043614920137E-57
41.21447028423775         5.188043614920137E-57
41.343669250646016        5.188043614920137E-57
41.47286821705428         0
41.60206718346256         0
41.73126614987083         0
41.860465116279094        1.0674986861903443E-54
41.98966408268736         1.0674986861903443E-54
42.11886304909562         1.0674986861903443E-54
42.24806201550388         14.20641029111363
42.37726098191216         28.41282058222726
42.50645994832042         28.41282058222726
42.63565891472869         14.20641029111363
42.76485788113696         8.321239865576794E-37
42.89405684754522         8.321239865576794E-37
43.02325581395349         1.93307171191418E-28
43.152454780361765        1.93307171191418E-28
43.28165374677004         1.93307171191418E-28
43.41085271317831         1.3382804159406577E-29
43.540051679586576        1.3382804159406577E-29
43.66925064599484         1.3382804159406577E-29
43.79844961240311         6.304851561628321E-60
43.927648578811386        6.304851561628321E-60
44.056847545219654        6.304851561628321E-60
44.18604651162792         0
44.31524547803619         0
44.44444444444445         0
44.573643410852725        0
44.70284237726099         0
44.832041343669246        0
44.96124031007752         1.60225825983756E-73
45.090439276485796        1.60225825983756E-73
45.21963824289407         1.60225825983756E-73
45.348837209302346        0
45.47803617571061         0
45.60723514211887         0
45.736434108527135        5.139808489064356E-53
45.86563307493541         5.139808489064356E-53
45.99483204134368         5.139808489064356E-53
46.12403100775194         4.392998708607864E-52
46.25322997416021         4.392998708607864E-52
46.382428940568474        4.392998708607864E-52
46.51162790697674         0
46.640826873385016        0
46.770025839793284        0
46.89922480620155         0
47.02842377260983         0
47.157622739018095        0
47.28682170542636         0
47.41602067183463         0
47.545219638242905        0
47.674418604651166        4.163244876142142E-55
47.80361757105943         4.163244876142142E-55
47.9328165374677          4.163244876142142E-55
48.06201550387597         6.695623698524402E-48
48.19121447028424         6.695623698524402E-48
48.320413436692505        6.695623698524402E-48
48.44961240310078         0
48.57881136950905         0
48.708010335917315        0
48.83720930232559         0
48.96640826873386         0
49.095607235142126        0
49.2248062015504          0
49.35400516795867         0
49.48320413436692         0
49.6124031007752          0
49.741602067183464        0
49.87080103359173         0
50                        0
