% Model:              Cav_Hex_Unif_flux_v5.1.1 - Lin. Distn.mph
% Version:            COMSOL 5.5.0.359
% Date:               May 16 2022, 14:36
% Dimension:          3
% Nodes:              13463
% Expressions:        1
% Description:        Surface
% x                       y                        z                        Color
-2                        -1.5467906581302693      0.48436023573739106      0.013703038575292077
-2                        -2                       0.6993006993006993       0.013703038575292077
-2                        -2                       0                        0.013703038575292077
-2                        -1.5467906581302693      0.48436023573739106      0.004079464203831469
-2                        -2                       0                        0.004079464203831469
-1.9999999999999996       -1.3333333333333333      0                        0.004079464203831469
-2                        0.9854950363904202       0.5398456058460233       0.005053714768104031
-1.9999999999999996       0.6666666666666664       0                        0.005053714768104031
-2                        1.3333333333333328       0                        0.005053714768104031
-2                        1.5331042872139844       0.46695214314432804      0.002765081657835158
-2                        1.3333333333333328       0                        0.002765081657835158
-2                        2                        0                        0.002765081657835158
-2                        1.5331042872139844       0.46695214314432804      0.009177146945076809
-2                        2                        0                        0.009177146945076809
-2                        2                        0.6993006993006993       0.009177146945076809
-2                        1.5331042872139844       0.46695214314432804      0.0031625858708092666
-2                        0.9854950363904202       0.5398456058460233       0.0031625858708092666
-2                        1.3333333333333328       0                        0.0031625858708092666
-2                        1.5331042872139844       0.46695214314432804      0.017201314260177212
-2                        2                        0.6993006993006993       0.017201314260177212
-2                        1.3650501983379588       1.0765628694962448       0.017201314260177212
-2                        1.5331042872139844       0.46695214314432804      0.008800539507189174
-2                        1.3650501983379588       1.0765628694962448       0.008800539507189174
-2                        0.9854950363904202       0.5398456058460233       0.008800539507189174
-2                        -1.5467906581302693      0.48436023573739106      0.005666770704828113
-1.9999999999999996       -1.3333333333333333      0                        0.005666770704828113
-2                        -0.9387819134775094      0.655560393584631        0.005666770704828113
-2                        -0.666666666666667       0                        0.0053391292340050755
-2                        -0.9387819134775094      0.655560393584631        0.0053391292340050755
-1.9999999999999996       -1.3333333333333333      0                        0.0053391292340050755
-1.9999999999999996       6.938893903907228E-18    0                        0.0029010526892578976
-1.9999999999999996       0.6666666666666664       0                        0.0029010526892578976
-2                        0.3333333333333335       0.5972399859632106       0.0029010526892578976
-2                        0.9854950363904202       0.5398456058460233       4.2172056775781455E-4
-2                        0.3333333333333335       0.5972399859632106       4.2172056775781455E-4
-1.9999999999999996       0.6666666666666664       0                        4.2172056775781455E-4
-1.9999999999999996       6.938893903907228E-18    0                        0.008341616862387278
-2                        -0.2746188433937594      0.6287052323405429       0.008341616862387278
-2                        -0.666666666666667       0                        0.008341616862387278
-2                        -0.9387819134775094      0.655560393584631        0.013338488324479859
-2                        -0.666666666666667       0                        0.013338488324479859
-2                        -0.2746188433937594      0.6287052323405429       0.013338488324479859
-2                        0.3333333333333335       0.5972399859632106       0.00816229885393326
-2                        -0.2746188433937594      0.6287052323405429       0.00816229885393326
-1.9999999999999996       6.938893903907228E-18    0                        0.00816229885393326
-2                        -1.4618381261501168      1.0669401072700702       0.027819577199779757
-2                        -2                       1.3986013986013985       0.027819577199779757
-2                        -2                       0.6993006993006993       0.027819577199779757
-2                        -1.5467906581302693      0.48436023573739106      0.020646436607825294
-2                        -1.4618381261501168      1.0669401072700702       0.020646436607825294
-2                        -2                       0.6993006993006993       0.020646436607825294
-2                        -1.5467906581302693      0.48436023573739106      0.006767218140918127
-2                        -0.9387819134775094      0.655560393584631        0.006767218140918127
-2                        -1.4618381261501168      1.0669401072700702       0.006767218140918127
-2                        0.6814823994572445       1.0983186364723951       0.013083485442166063
-2                        0.3333333333333335       0.5972399859632106       0.013083485442166063
-2                        0.9854950363904202       0.5398456058460233       0.013083485442166063
-2                        0.9854950363904202       0.5398456058460233       0.016844112708977368
-2                        1.3650501983379588       1.0765628694962448       0.016844112708977368
-2                        0.6814823994572445       1.0983186364723951       0.016844112708977368
-2                        0.931162528193509        1.5500723640754555       0.017419206376336316
-2                        0.6814823994572445       1.0983186364723951       0.017419206376336316
-2                        1.3650501983379588       1.0765628694962448       0.017419206376336316
-2                        2                        1.3986013986013985       0.010673400837376563
-2                        1.3650501983379588       1.0765628694962448       0.010673400837376563
-2                        2                        0.6993006993006993       0.010673400837376563
-2                        1.4270887945533661       1.777807580009244        0.009600560235140785
-2                        1.3650501983379588       1.0765628694962448       0.009600560235140785
-2                        2                        1.3986013986013985       0.009600560235140785
-2                        0.931162528193509        1.5500723640754555       0.015201782881500156
-2                        1.3650501983379588       1.0765628694962448       0.015201782881500156
-2                        1.4270887945533661       1.777807580009244        0.015201782881500156
-2                        0.3333333333333335       0.5972399859632106       0.024674735065938713
-2                        0.07957332045228059      1.1377343548604368       0.024674735065938713
-2                        -0.2746188433937594      0.6287052323405429       0.024674735065938713
-2                        0.07957332045228059      1.1377343548604368       0.008333994111807765
-2                        0.3333333333333335       0.5972399859632106       0.008333994111807765
-2                        0.6814823994572445       1.0983186364723951       0.008333994111807765
-2                        -0.4415884032033146      1.0634696305705904       0.004195788850557261
-2                        -0.9387819134775094      0.655560393584631        0.004195788850557261
-2                        -0.2746188433937594      0.6287052323405429       0.004195788850557261
-2                        -0.4415884032033146      1.0634696305705904       0.02152672340400179
-2                        -0.2746188433937594      0.6287052323405429       0.02152672340400179
-2                        0.07957332045228059      1.1377343548604368       0.02152672340400179
-2                        -1.4618381261501168      1.0669401072700702       0.03131008360318204
-2                        -0.9387819134775094      0.655560393584631        0.03131008360318204
-2                        -0.8925878367072785      1.4155661681446052       0.03131008360318204
-2                        -0.4415884032033146      1.0634696305705904       0.019483918222822666
-2                        -0.8925878367072785      1.4155661681446052       0.019483918222822666
-2                        -0.9387819134775094      0.655560393584631        0.019483918222822666
-2                        -1.4618381261501168      1.0669401072700702       0.009913352233916713
-2                        -1.3928683485856417      1.7482517482517392       0.009913352233916713
-2                        -2                       1.3986013986013985       0.009913352233916713
-2                        -0.8925878367072785      1.4155661681446052       0.001517228473007922
-2                        -1.3928683485856417      1.7482517482517392       0.001517228473007922
-2                        -1.4618381261501168      1.0669401072700702       0.001517228473007922
-2                        -2                       1.3986013986013985       0.019009550237686305
-2                        -1.3928683485856417      1.7482517482517392       0.019009550237686305
-2                        -2                       2.0979020979020975       0.019009550237686305
-2                        -1.3928683485856417      1.7482517482517392       0.014210109784156155
-2                        -1.3928683485856423      2.447552447552442        0.014210109784156155
-2                        -2                       2.0979020979020975       0.014210109784156155
-2                        -0.8322414176117614      2.127247752162631        0.00953242721952769
-2                        -1.3928683485856423      2.447552447552442        0.00953242721952769
-2                        -1.3928683485856417      1.7482517482517392       0.00953242721952769
-2                        -1.3928683485856417      1.7482517482517392       0.008596417898864958
-2                        -0.8925878367072785      1.4155661681446052       0.008596417898864958
-2                        -0.8322414176117614      2.127247752162631        0.008596417898864958
-2                        0.6814823994572445       1.0983186364723951       0.009257647739321216
-2                        0.4375143654547809       1.6628349329323222       0.009257647739321216
-2                        0.07957332045228059      1.1377343548604368       0.009257647739321216
-2                        0.931162528193509        1.5500723640754555       0.00511059634599251
-2                        0.4375143654547809       1.6628349329323222       0.00511059634599251
-2                        0.6814823994572445       1.0983186364723951       0.00511059634599251
-2                        0.931162528193509        1.5500723640754555       0.005149969234699493
-2                        1.4270887945533661       1.777807580009244        0.005149969234699493
-2                        0.8734516922030853       2.0961543024278666       0.005149969234699493
-2                        0.931162528193509        1.5500723640754555       0.013493169230638454
-2                        0.8734516922030853       2.0961543024278666       0.013493169230638454
-2                        0.4375143654547809       1.6628349329323222       0.013493169230638454
-2                        1.4270887945533661       1.777807580009244        0.016788692152066673
-2                        2                        1.3986013986013985       0.016788692152066673
-2                        2                        2.0979020979020975       0.016788692152066673
-2                        2                        2.0979020979020975       0.017764261437962125
-2                        2                        2.797202797202796        0.017764261437962125
-2                        1.3928683485856423       2.447552447552442        0.017764261437962125
-2                        1.4270887945533661       1.777807580009244        0.014272286751478347
-2                        2                        2.0979020979020975       0.014272286751478347
-2                        1.3928683485856423       2.447552447552442        0.014272286751478347
-2                        0.8734516922030853       2.0961543024278666       0.021657313840870624
-2                        1.4270887945533661       1.777807580009244        0.021657313840870624
-2                        1.3928683485856423       2.447552447552442        0.021657313840870624
-2                        -0.8322414176117614      2.127247752162631        0.007131898713341276
-2                        -0.8925878367072785      1.4155661681446052       0.007131898713341276
-2                        -0.2432586202459959      1.7704364526325622       0.007131898713341276
-2                        0.07957332045228059      1.1377343548604368       0.014078117976789557
-2                        -0.2432586202459959      1.7704364526325622       0.014078117976789557
-2                        -0.4415884032033146      1.0634696305705904       0.014078117976789557
-2                        0.4375143654547809       1.6628349329323222       0.014855435155994213
-2                        -0.2432586202459959      1.7704364526325622       0.014855435155994213
-2                        0.07957332045228059      1.1377343548604368       0.014855435155994213
-2                        -0.4415884032033146      1.0634696305705904       0.0218008181544895
-2                        -0.2432586202459959      1.7704364526325622       0.0218008181544895
-2                        -0.8925878367072785      1.4155661681446052       0.0218008181544895
-2                        0.8734516922030853       2.0961543024278666       0.008732247665186014
-2                        0.31765840403057277      2.313218062714456        0.008732247665186014
-2                        0.4375143654547809       1.6628349329323222       0.008732247665186014
-2                        0.4375143654547809       1.6628349329323222       0.005144933539328305
-2                        0.31765840403057277      2.313218062714456        0.005144933539328305
-2                        -0.2432586202459959      1.7704364526325622       0.005144933539328305
-2                        -2                       2.0979020979020975       0.01418731343107518
-2                        -1.3928683485856423      2.447552447552442        0.01418731343107518
-2                        -2                       2.797202797202796        0.01418731343107518
-2                        -0.8322414176117614      2.127247752162631        0.02542167971114455
-2                        -0.2432586202459959      1.7704364526325622       0.02542167971114455
-2                        -0.2674700537808149      2.5620368233435995       0.02542167971114455
-2                        0.31765840403057277      2.313218062714456        0.013233549305555476
-2                        -0.2674700537808149      2.5620368233435995       0.013233549305555476
-2                        -0.2432586202459959      1.7704364526325622       0.013233549305555476
-2                        -2                       2.797202797202796        0.013049338497672482
-2                        -1.3928683485856448      3.1468531468531404       0.013049338497672482
-2                        -2                       3.4965034965034967       0.013049338497672482
-2                        -1.3928683485856423      2.447552447552442        0.010528488430066176
-2                        -1.3928683485856448      3.1468531468531404       0.010528488430066176
-2                        -2                       2.797202797202796        0.010528488430066176
-2                        -0.8043952977651958      2.8196428730508485       0.025118316182010537
-2                        -1.3928683485856448      3.1468531468531404       0.025118316182010537
-2                        -1.3928683485856423      2.447552447552442        0.025118316182010537
-2                        -0.8322414176117614      2.127247752162631        0.016808736862699715
-2                        -0.8043952977651958      2.8196428730508485       0.016808736862699715
-2                        -1.3928683485856423      2.447552447552442        0.016808736862699715
-2                        -0.8043952977651958      2.8196428730508485       0.01744365089897649
-2                        -0.8322414176117614      2.127247752162631        0.01744365089897649
-2                        -0.2674700537808149      2.5620368233435995       0.01744365089897649
-2                        1.3928683485856423       2.447552447552442        0.010048620486577736
-2                        0.8349811804106952       2.7580080486931893       0.010048620486577736
-2                        0.8734516922030853       2.0961543024278666       0.010048620486577736
-2                        0.8734516922030853       2.0961543024278666       0.005503969970515476
-2                        0.8349811804106952       2.7580080486931893       0.005503969970515476
-2                        0.31765840403057277      2.313218062714456        0.005503969970515476
-2                        1.3928683485856423       2.447552447552442        0.01625607200361399
-2                        2                        2.797202797202796        0.01625607200361399
-2                        1.392868348585642        3.1468531468531404       0.01625607200361399
-2                        0.8349811804106952       2.7580080486931893       0.020960223000980556
-2                        1.3928683485856423       2.447552447552442        0.020960223000980556
-2                        1.392868348585642        3.1468531468531404       0.020960223000980556
-2                        2                        2.797202797202796        0.009276155239517685
-2                        2                        3.4965034965034967       0.009276155239517685
-2                        1.392868348585642        3.1468531468531404       0.009276155239517685
-2                        1.392868348585642        3.1468531468531404       0.010243583458538406
-2                        0.7857366971712838       3.496503496503489        0.010243583458538406
-2                        0.8349811804106952       2.7580080486931893       0.010243583458538406
-2                        0.27073186014168504      3.0298378162571975       0.014755814641444235
-2                        0.8349811804106952       2.7580080486931893       0.014755814641444235
-2                        0.7857366971712838       3.496503496503489        0.014755814641444235
-2                        0.8349811804106952       2.7580080486931893       0.01998993088307058
-2                        0.27073186014168504      3.0298378162571975       0.01998993088307058
-2                        0.31765840403057277      2.313218062714456        0.01998993088307058
-2                        -0.2674700537808149      2.5620368233435995       0.01848909943031914
-2                        0.31765840403057277      2.313218062714456        0.01848909943031914
-2                        0.27073186014168504      3.0298378162571975       0.01848909943031914
-2                        -0.8043952977651958      2.8196428730508485       0.007735468721399227
-2                        -0.2674700537808149      2.5620368233435995       0.007735468721399227
-2                        -0.27122003005021955     3.276467906589031        0.007735468721399227
-2                        0.27073186014168504      3.0298378162571975       0.02155794331664367
-2                        -0.27122003005021955     3.276467906589031        0.02155794331664367
-2                        -0.2674700537808149      2.5620368233435995       0.02155794331664367
-2                        -0.8043952977651958      2.8196428730508485       0.014033013225838315
-2                        -0.7943106840168576      3.508357084488978        0.014033013225838315
-2                        -1.3928683485856448      3.1468531468531404       0.014033013225838315
-2                        -0.7943106840168576      3.508357084488978        0.008784622105042411
-2                        -0.8043952977651958      2.8196428730508485       0.008784622105042411
-2                        -0.27122003005021955     3.276467906589031        0.008784622105042411
-2                        -1.3928683485856448      3.1468531468531404       0.011198443531927105
-2                        -1.3928683485856421      3.8461538461538325       0.011198443531927105
-2                        -2                       3.4965034965034967       0.011198443531927105
-2                        -0.7943106840168576      3.508357084488978        0.014343961559436028
-2                        -1.3928683485856421      3.8461538461538325       0.014343961559436028
-2                        -1.3928683485856448      3.1468531468531404       0.014343961559436028
-2                        0.7857366971712838       3.496503496503489        0.0167801139736663
-2                        0.2396884944306046       3.761717135288639        0.0167801139736663
-2                        0.27073186014168504      3.0298378162571975       0.0167801139736663
-2                        -0.27122003005021955     3.276467906589031        0.006064199717084151
-2                        0.27073186014168504      3.0298378162571975       0.006064199717084151
-2                        0.2396884944306046       3.761717135288639        0.006064199717084151
-2                        -2                       3.4965034965034967       0.014266509894502951
-2                        -1.3928683485856421      3.8461538461538325       0.014266509894502951
-1.9999999999999996       -1.9999999999999996      4.195804195804195        0.014266509894502951
-2                        2                        3.4965034965034967       0.012302535038409102
-1.9999999999999996       1.9999999999999996       4.195804195804195        0.012302535038409102
-2                        1.3928683485856421       3.8461538461538325       0.012302535038409102
-2                        1.392868348585642        3.1468531468531404       0.020868237214339547
-2                        2                        3.4965034965034967       0.020868237214339547
-2                        1.3928683485856421       3.8461538461538325       0.020868237214339547
-2                        1.392868348585642        3.1468531468531404       0.0065998485363500566
-2                        1.3928683485856421       3.8461538461538325       0.0065998485363500566
-2                        0.7857366971712838       3.496503496503489        0.0065998485363500566
-2                        0.2396884944306046       3.761717135288639        0.01432479003280544
-2                        0.7857366971712838       3.496503496503489        0.01432479003280544
-2                        0.7857366971712788       4.195804195804182        0.01432479003280544
-2                        0.7857366971712838       3.496503496503489        0.01551889077739329
-2                        1.3928683485856421       3.8461538461538325       0.01551889077739329
-2                        0.7857366971712788       4.195804195804182        0.01551889077739329
-2                        1.3928683485856421       3.8461538461538325       0.011995517251339924
-1.9999999999999996       1.9999999999999996       4.195804195804195        0.011995517251339924
-2                        1.3928683485856386       4.545454545454541        0.011995517251339924
-2                        1.3928683485856421       3.8461538461538325       0.007891729389782345
-2                        1.3928683485856386       4.545454545454541        0.007891729389782345
-2                        0.7857366971712788       4.195804195804182        0.007891729389782345
-1.9999999999999996       1.9999999999999996       4.195804195804195        0.008853599875956134
-1.9999999999999996       1.9999999999999996       4.895104895104893        0.008853599875956134
-2                        1.3928683485856386       4.545454545454541        0.008853599875956134
-2                        -0.7943106840168576      3.508357084488978        0.009995857172397045
-2                        -0.7857366971712819      4.195804195804182        0.009995857172397045
-2                        -1.3928683485856421      3.8461538461538325       0.009995857172397045
-2                        -0.7857366971712819      4.195804195804182        0.013148924251578683
-2                        -0.7943106840168576      3.508357084488978        0.013148924251578683
-2                        -0.27310714516346263     3.9785851222218556       0.013148924251578683
-2                        -0.7943106840168576      3.508357084488978        0.014131657181770497
-2                        -0.27122003005021955     3.276467906589031        0.014131657181770497
-2                        -0.27310714516346263     3.9785851222218556       0.014131657181770497
-2                        -0.27310714516346263     3.9785851222218556       0.014262218210670365
-2                        -0.27122003005021955     3.276467906589031        0.014262218210670365
-2                        0.2396884944306046       3.761717135288639        0.014262218210670365
-1.9999999999999996       -1.9999999999999996      4.195804195804195        0.01340492982078678
-2                        -1.3928683485856386      4.545454545454531        0.01340492982078678
-1.9999999999999996       -1.9999999999999996      4.895104895104893        0.01340492982078678
-2                        -1.3928683485856421      3.8461538461538325       0.024822319228323595
-2                        -1.3928683485856386      4.545454545454531        0.024822319228323595
-1.9999999999999996       -1.9999999999999996      4.195804195804195        0.024822319228323595
-2                        -1.3928683485856421      3.8461538461538325       0.00993240032853334
-2                        -0.7857366971712819      4.195804195804182        0.00993240032853334
-2                        -1.3928683485856386      4.545454545454531        0.00993240032853334
-2                        0.7857366971712788       4.195804195804182        0.012217355180939653
-2                        0.23876993251597203      4.461451690380269        0.012217355180939653
-2                        0.2396884944306046       3.761717135288639        0.012217355180939653
-2                        0.2396884944306046       3.761717135288639        0.02969437468526817
-2                        0.23876993251597203      4.461451690380269        0.02969437468526817
-2                        -0.27310714516346263     3.9785851222218556       0.02969437468526817
-2                        -0.27310714516346263     3.9785851222218556       0.013799291645930288
-2                        -0.27362248289541746     4.678460517942923        0.013799291645930288
-2                        -0.7857366971712819      4.195804195804182        0.013799291645930288
-2                        -0.27362248289541746     4.678460517942923        0.026094849412060202
-2                        -0.27310714516346263     3.9785851222218556       0.026094849412060202
-2                        0.23876993251597203      4.461451690380269        0.026094849412060202
-2                        -0.7857366971712819      4.195804195804182        0.010320062462436339
-2                        -0.7857366971712776      4.895104895104884        0.010320062462436339
-2                        -1.3928683485856386      4.545454545454531        0.010320062462436339
-2                        -0.7857366971712776      4.895104895104884        0.013607727360489787
-2                        -0.7857366971712819      4.195804195804182        0.013607727360489787
-2                        -0.27362248289541746     4.678460517942923        0.013607727360489787
-1.9999999999999996       -1.9999999999999996      4.895104895104893        0.018778859862315606
-2                        -1.3928683485856421      5.24475524475524         0.018778859862315606
-2                        -2                       5.594405594405594        0.018778859862315606
-2                        -1.3928683485856386      4.545454545454531        0.008853588320193983
-2                        -1.3928683485856421      5.24475524475524         0.008853588320193983
-1.9999999999999996       -1.9999999999999996      4.895104895104893        0.008853588320193983
-2                        -1.3928683485856386      4.545454545454531        0.007086443965686742
-2                        -0.7857366971712776      4.895104895104884        0.007086443965686742
-2                        -1.3928683485856421      5.24475524475524         0.007086443965686742
-2                        0.23876993251597203      4.461451690380269        0.006416894048976381
-2                        0.23861683886353413      5.160824698979444        0.006416894048976381
-2                        -0.27362248289541746     4.678460517942923        0.006416894048976381
-2                        1.3928683485856386       4.545454545454541        0.006455932468749107
-1.9999999999999996       1.9999999999999996       4.895104895104893        0.006455932468749107
-2                        1.3928683485856421       5.24475524475524         0.006455932468749107