% Model:              Cav_Hex_Unif_flux_v5.1.1 - Lin. Distn.mph
% Version:            COMSOL 5.5.0.359
% Date:               May 16 2022, 14:36
% Dimension:          3
% Nodes:              9037
% Expressions:        1
% Description:        Surface
% x                       y                        z                        Color
-1                        0.7341292700078723       49.73016380338987        0
-1                        1                        49.6124031007752         0
-1                        1                        50                       0
-1                        0.5999999999999999       50                       0
-1                        0.19999999999999948      50                       0
-1                        0.38111210693000125      49.63287709146556        0
-1                        0.6914798298975102       49.40570760710693        1.983406936904645E-88
-1                        1                        49.2248062015504         8.726990522380509E-88
-1                        1                        48.83720930232559        7.85507697784049E-58
-1                        0.6635414102482411       49.03100775193799        9.818846222300613E-58
-1                        -0.022695248993348294    49.68716171430425        1.9637692444601177E-62
-1                        -0.20000000000000018     50                       1.9637692444601177E-62
-1                        0.09836177863380091      49.39526615978301        0
-1                        -0.39738041842737953     49.70397880746825        1.9637692444601177E-62
-1                        -0.6000000000000001      50                       0
-1                        -0.21895298358957163     49.39176608722758        0
-1                        -0.7190093876056589      49.743567143472          0
-1                        -1                       50                       0
-1                        -0.013424971416534206    49.05095160054088        2.9924865469991654E-122
-1                        0.3631594067170336       49.217228872550585       2.9924865469991654E-122
-1                        1                        48.44961240310078        2.817794352214566E-101
-1                        0.6635414102482369       48.64341085271319        9.818846222300613E-58
-1                        0.3270828204964782       48.83720930232559        1.309179496306684E-94
-1                        1                        48.06201550387597        3.381353237824623E-101
-1                        0.6635414102482375       48.25581395348838        9.818846222300824E-42
-1                        -0.009375769255285993    48.643410852713195       0
-1                        -0.6236248903756987      49.401377899805674       1.96376924446005E-92
-1                        -0.3387404875764728      48.81880760507406        5.983293883085423E-118
-1                        -0.3662068562419716      49.12636205546553        1.3091794963067E-92
-1                        -0.6645126092583694      49.00767976279964        2.833602703575017E-91
-1                        -1                       49.6124031007752         0
-1                        -1                       49.2248062015504         3.038412204154116E-91
-1                        1                        47.674418604651166       7.200487229687247E-44
-1                        0.66354141024824         47.868217054263575       1.3091794963067766E-41
-0.9999999999999998       0.9999999999999998       47.28682170542636        1.080073084453087E-43
-1                        0.66354141024824         47.48062015503877        9.81884622230078E-45
-1                        0.3270828204964784       47.67441860465117        8.382405385405782E-109
-1                        0.32708282049647885      48.06201550387597        1.9637692444601648E-41
-1                        0.32708282049647464      48.44961240310079        0
-1                        0.009375769255285604     48.25581395348838        1.963769244460091E-69
-1                        -0.3270828204964747      48.44961240310079        3.92753848892056E-7
-1                        -0.009375769255285993    48.643410852713195       3.92753848892056E-7
-1                        -0.3387404875764728      48.81880760507406        3.92753848892056E-7
-1                        -0.3270828204964747      48.44961240310079        1.9637692444600522E-84
-1                        -0.32708282049647885     48.06201550387597        9.91703468452346E-70
-1                        0.00937576925528183      47.868217054263575       9.818846222300455E-70
-1                        -0.6635414102482369      48.64341085271319        9.818846222300261E-85
-1                        -0.3387404875764728      48.81880760507406        3.927538488920548E-9
-1                        -0.6635414102482369      48.64341085271319        3.927538488920548E-9
-1                        -0.3270828204964747      48.44961240310079        3.927538488920548E-9
-1                        -0.6635414102482375      48.25581395348838        1.9637692444600522E-84
-1                        -1                       48.44961240310078        2.1530462297309136E-116
-1                        -1                       48.83720930232559        2.5254642726468966E-91
-1                        1                        46.511627906976756       1.3903214691655552E-67
-1                        1                        46.89922480620155        9.818846222300309E-82
-1                        0.6635414102482429       46.70542635658915        2.5278572166646418E-68
-1                        0.00937576925528183      47.48062015503877        6.705924308324626E-109
-1                        0.32708282049647797      47.28682170542636        7.491364947363834E-114
-1                        0.6635414102482375       47.09302325581397        0
-1                        0.3270828204964802       46.89922480620156        1.963769244459974E-114
-1                        0.00937576925528294      47.09302325581397        9.81884622239806E-115
-1                        -0.32708282049647885     47.28682170542636        1.3091794963067324E-66
-1                        -0.66354141024824        47.868217054263575       1.963769244460087E-71
-1                        -0.32708282049647774     47.67441860465117        9.818944410762717E-67
-1                        -0.6635414102482402      47.48062015503877        9.81884622230078E-45
-1                        -0.6635414102482373      47.09302325581397        9.818846223282665E-45
-1                        -1                       47.674418604651166       8.719135445402456E-100
-1                        -1                       48.06201550387597        0
-0.9999999999999998       0.9999999999999998       45.736434108527135       7.200487239234615E-113
-1                        1                        46.12403100775194        0
-1                        0.66354141024824         45.93023255813954        1.9096047120966412E-121
-1                        0.3270828204964764       46.51162790697676        0
-1                        0.6635414102482351       46.31782945736435        3.791785824996963E-68
-1                        0.009375769255279165     46.705426356589165       8.453382677465017E-110
-1                        0.32708282049647597      46.12403100775194        1.309179496306797E-29
-1                        0.009375769255290933     46.317829457364354       7.85507697784068E-39
-1                        -0.32708282049648        46.89922480620156        5.983293883085621E-111
-1                        -0.32708282049647636     46.51162790697676        2.9293568801567308E-83
-1                        -0.6635414102482426      46.70542635658915        7.85507697784066E-55
-1                        -1                       46.89922480620155        7.85507697784066E-55
-0.9999999999999998       -0.9999999999999998      47.28682170542636        7.855076977919174E-45
-1                        -1                       46.89922480620155        3.927538488920519E-4
-1                        -0.6635414102482373      47.09302325581397        3.927538488920519E-4
-0.9999999999999998       -0.9999999999999998      47.28682170542636        3.927538488920519E-4
-1                        1                        45.348837209302346       8.640584675623911E-113
-1                        0.6635414102482426       45.54263565891474        2.929356872150062E-64
-1                        1                        44.96124031007753        8.640584675624285E-80
-1                        0.6635414102482375       45.15503875968994        9.828665068522648E-78
-1                        0.3270828204964831       45.736434108527135       7.855076977840783E-30
-1                        0.3270828204964802       45.34883720930235        2.929356872150062E-64
-1                        0.00937576925527872      45.93023255813954        7.85507698569586E-30
-1                        0.009375769255273614     45.542635658914755       7.855076977840875E-22
-1                        -0.32708282049648396     45.736434108527135       7.933627747619296E-20
-1                        -0.3270828204964751      46.12403100775194        9.81884622230085E-39
-1                        -0.6635414102482349      46.31782945736435        7.855076977840852E-23
-1                        -0.66354141024824        45.93023255813954        1.3104886758031215E-19
-1                        -1                       46.12403100775194        9.9170346845241E-21
-1                        -1                       46.511627906976756       9.818846222299856E-116
-1                        0.66354141024824         44.76744186046513        1.9647511290822992E-77
-1.0000000000000002       1.0000000000000002       44.573643410852725       4.0272671811217794E-116
-1                        1                        44.18604651162791        9.81884622230116E-16
-1                        0.6635414102482335       44.37984496124031        1.3091794963067129E-77
-1                        0.32708282049647264      44.57364341085273        6.54589748153392E-51
-1                        0.32708282049647797      44.96124031007754        6.54589748153392E-51
-1                        0.009375769255284938     45.155038759689944       7.855076977840317E-74
-1                        0.009375769255284494     44.76744186046514        9.818846222300881E-51
-1                        -0.3270828204964782      44.96124031007754        1.6924454099668872E-87
-1                        -0.3270828204964802      45.34883720930235        6.545897481534062E-22
-1                        -0.6635414102482429      45.54263565891474        9.81884622230111E-20
-1                        -0.6635414102482375      45.15503875968994        1.6924454099668872E-87
-1                        -1                       45.348837209302346       9.818846222299929E-110
-0.9999999999999998       -0.9999999999999998      45.736434108527135       0
-1                        1                        43.7984496124031         9.818846222301007E-28
-1                        0.6635414102482411       43.992248062015506       1.5348386586431299E-81
-1                        1                        43.41085271317829        9.818846222301007E-28
-1                        0.6635414102482369       43.6046511627907         9.818846222301007E-28
-1                        0.3270828204964782       43.798449612403104       6.546864935296878E-40
-1                        0.32708282049647464      44.18604651162791        1.000843551355E-104
-1                        0.009375769255293155     44.379844961240316       1.432204514975269E-94
-1                        0.00937576925528294      43.992248062015506       9.674603088858401E-44
-1                        -0.32708282049647264     44.57364341085273        0
-1                        -0.32708282049647464     44.18604651162791        1.3091794963067643E-48
-1                        -0.6635414102482402      44.76744186046513        1.3091794963068166E-17
-1                        -0.6635414102482333      44.37984496124031        1.963769244460225E-17
-1.0000000000000002       -1.0000000000000002      44.573643410852725       7.8550769778409E-18
-1                        -1                       44.96124031007753        9.818846222300713E-50
-1                        1                        43.02325581395349        7.855076977842096E-109
-1                        0.6635414102482411       43.2170542635659         1.9637692444602115E-23
-1                        1                        42.63565891472869        6.545897481534132E-13
-1                        0.663541410248242        42.82945736434109        7.85507697784073E-35
-1                        0.3270828204964824       43.02325581395349        7.855076977840845E-24
-1                        0.3270828204964773       43.41085271317829        6.5458974815340394E-24
-1                        0.009375769255284938     43.6046511627907         6.545897481534083E-26
-1                        0.009375769255280275     43.2170542635659         1.1609445155880455E-45
-1                        -0.32708282049647797     43.798449612403104       9.818846222301026E-26
-1                        -0.32708282049647724     43.41085271317829        7.855076977848676E-26
-1                        -0.6635414102482406      43.992248062015506       1.3091794963067954E-29
-1                        -0.6635414102482367      43.6046511627907         7.855076977848628E-30
-1                        -1                       43.7984496124031         6.545897546999498E-30
-1                        -1                       44.18604651162791        7.855076977840765E-31
-1                        1                        42.24806201550388        9.81884622230088E-37
-1                        0.6635414102482375       42.441860465116285       6.611356456349281E-35
-0.9999999999999998       0.9999999999999998       41.86046511627906        6.36261313755926E-60
-1                        0.6635414102482335       42.05426356589147        6.545897481533919E-37
-1                        0.3270828204964713       42.24806201550388        6.545897481533832E-47
-1                        0.32708282049647974      42.635658914728694       6.546552071281986E-47
-1                        0.009375769255276944     42.8294573643411         9.674537629883742E-46
-1                        0.009375769255286936     42.4418604651163         6.545897481533832E-47
-1                        -0.32708282049648224     43.02325581395349        6.545897578279292E-38
-1                        -0.32708282049648046     42.635658914728694       1.04406107305567E-39
-1                        -0.6635414102482409      43.2170542635659         7.855076977840697E-38
-1                        -0.6635414102482418      42.82945736434109        1.0440610734834511E-39
-1                        -1                       43.02325581395349        6.416715814676296E-49
-1                        -1                       43.41085271317829        6.545897481534593E-42
-0.9999999999999998       0.9999999999999998       41.47286821705427        4.294763337634341E-52
-1                        0.6635414102482429       41.66666666666666        4.294763337634351E-52
-0.9999999999999998       0.9999999999999998       41.08527131782947        6.545897493330665E-59
-1                        0.663541410248242        41.27906976744187        6.545940429173761E-47
-1                        0.32708282049648485      41.47286821705427        6.545897481533839E-47
-1                        0.32708282049647486      41.86046511627906        2.1454757912439303E-65
-1                        0.00937576925529382      42.05426356589147        9.988090763297129E-70
-1                        0.00937576925527761      41.66666666666666        9.818846222300979E-31
-1                        0.32708282049647486      41.86046511627906        3.927538488920504E-7
-1                        0.00937576925529382      42.05426356589147        3.927538488920504E-7
-1                        0.00937576925527761      41.66666666666666        3.927538488920504E-7
-1                        -0.3270828204964751      41.86046511627906        6.545897481533979E-31
-1                        -0.3270828204964704      42.24806201550388        6.54589860982949E-65
-1                        -0.6635414102482373      42.441860465116285       1.252873287666804E-39
-1                        -0.6635414102482333      42.05426356589147        1.5636471564110481E-80
-1                        -0.6635414102482333      42.05426356589147        3.927538488920486E-10
-1                        -0.6635414102482373      42.441860465116285       3.927538488920486E-10
-1                        -1                       42.24806201550388        3.927538488920486E-10
-1                        -1                       42.63565891472869        5.1333726517410366E-49
-1                        -1                       42.24806201550388        1.6924437175421707E-69
-1                        1                        40.69767441860465        7.20048733409349E-30
-1                        0.663541410248236        40.89147286821706        1.044061073055672E-37
-1                        1                        40.310077519379846       7.200487229687387E-30
-1                        0.6635414102482402       40.50387596899225        6.545897585940097E-30
-1                        0.6635414102482369       40.11627906976744        6.545897481538233E-33
-1                        0.3270828204964764       40.69767441860465        6.545897481533839E-47
-1                        0.3270828204964773       41.08527131782947        6.545897481533844E-47
-1                        0.0093757692552765       41.279069767441875       6.545897481533854E-46
-1                        0.009375769255288269     40.891472868217065       4.295417927382534E-43
-1                        0.009375769255283828     40.503875968992254       6.545963595098684E-14
-1                        -0.3270828204964844      41.47286821705427        6.545897481533986E-31
-1                        -0.3270828204964773      41.08527131782947        6.545897481599264E-51
-1                        -0.6635414102482418      41.66666666666666        5.302303376022865E-72
-1                        -0.6635414102482418      41.27906976744187        6.6113564563491595E-49
-0.9999999999999998       -0.9999999999999998      41.47286821705427        7.85507697784857E-37
-0.9999999999999998       -0.9999999999999998      41.86046511627906        7.855076977840598E-47
-1                        1                        39.922480620155035       7.855076977840747E-33
-1                        1                        39.53488372093023        1.0800730844530013E-102
-1                        0.6635414102482411       39.72868217054263        7.855076977840748E-33
-1                        0.6635414102482369       39.34108527131784        7.855076977892355E-39
-1                        0.3270828204964782       39.922480620155035       1.516714329998819E-48
-1                        0.32708282049647597      40.31007751937985        7.855076977840869E-21
-1                        0.009375769255286714     40.116279069767444       6.545963595098684E-14
-1                        0.009375769255281385     39.72868217054264        6.545897481534102E-17
-1                        -0.3270828204964759      40.31007751937985        6.545962940508937E-14
-1                        -0.32708282049647636     40.69767441860465        8.572573880751949E-43
-1                        -0.663541410248236       40.89147286821706        1.3091794963067711E-43
-1                        -0.66354141024824        40.50387596899225        6.704388047309206E-43
-1                        -0.6635414102482369      40.11627906976744        2.929356872150123E-66
-1                        -1                       40.69767441860465        7.855076977840639E-43
-0.9999999999999998       -0.9999999999999998      41.08527131782947        6.545897481533822E-49
-1                        1                        39.14728682170542        5.832395310636129E-82
-1                        1                        38.75968992248062        1.263928608332345E-50
-1                        0.6635414102482411       38.95348837209302        6.54589748153408E-39
-1                        0.6635414102482402       38.565891472868216       6.545897481533964E-32
-1                        0.3270828204964773       39.14728682170542        7.855076977840896E-39
-1                        0.3270828204964782       39.53488372093024        1.5682514900504312E-48
-1                        0.3270828204964773       39.14728682170542        3.9275384889205115E-5
-1                        0.6635414102482369       39.34108527131784        3.9275384889205115E-5
-1                        0.3270828204964782       39.53488372093024        3.9275384889205115E-5
-1                        0.009375769255284272     39.34108527131784        4.294763338288725E-85
-1                        0.009375769255280943     38.95348837209303        6.54589748153401E-42
-1                        -0.3270828204964782      39.53488372093024        6.545897481534102E-17
-1                        -0.3270828204964773      39.922480620155035       6.545897481534102E-17
-1                        -0.6635414102482411      39.72868217054263        2.735105994818299E-77
-1                        -0.6635414102482369      39.34108527131784        2.4411307274463705E-58
-1                        -1                       39.922480620155035       2.929356872150123E-66
-1                        -1                       40.310077519379846       2.441130726791708E-66
-1                        1                        38.372093023255815       1.2639294004513993E-50
-1                        1                        37.984496124031          6.552443379015293E-56
-1                        0.663541410248236        38.178294573643406       6.545897481533964E-32
-1                        0.6635414102482411       37.7906976744186         1.1969946973513186E-48
-1                        0.3270828204964764       38.372093023255815       6.545897481533964E-32
-1                        0.32708282049648085      38.759689922480625       6.558536767623651E-53
-1                        0.00937576925528183      38.56589147286822        6.54589748153401E-42
-1                        0.009375769255289157     38.17829457364341        1.2639286148782292E-57
-1                        -0.3270828204964799      38.759689922480625       6.545897481533883E-42
-1                        -0.32708282049647813     39.14728682170542        2.4411307267917808E-58
-1                        -0.6635414102482409      38.95348837209302        2.5065897016071812E-58
-1                        -0.6635414102482402      38.565891472868216       1.0447156628038287E-35
-1                        -1                       39.14728682170542        2.4411373381481776E-62
-1                        -1                       39.53488372093023        3.9275384889204896E-10
-1                        -0.6635414102482411      39.72868217054263        3.9275384889204896E-10
-1                        -1                       39.922480620155035       3.9275384889204896E-10
-1                        -1                       39.53488372093023        3.6617060072222664E-62
-1.0000000000000002       1.0000000000000002       37.5968992248062         4.4260742569068146E-57
-1                        1                        37.2093023255814         1.1969946630605027E-49
-1                        0.6635414102482411       37.4031007751938         1.1969946187997634E-48
-1                        0.6635414102482375       37.01550387596899        6.545897481533714E-62
-1                        0.3270828204964824       37.59689922480621        1.1977801264975473E-48
-1                        0.32708282049647686      37.984496124031          7.855155528610237E-61
-1                        0.00937576925527761      37.790697674418595       6.545897481599494E-25
-1                        0.009375769255278499     37.403100775193806       7.855076977840841E-25
-1                        -0.32708282049647647     38.372093023255815       6.545897481533954E-33
-1                        -0.32708282049647686     37.984496124031          6.552443379015488E-33
-1                        -0.663541410248236       38.178294573643406       1.1199672699580329E-31
-1                        -0.6635414102482411      37.7906976744186         6.545962940508734E-37
-1                        -1                       38.372093023255815       1.0546061553525173E-31
-1                        -1                       38.75968992248062        1.1484671803612444E-34
-1                        1                        36.82170542635659        1.1790390167815881E-49
-1                        1                        36.434108527131784       6.545897481534074E-24
-1                        0.6635414102482402       36.627906976744185       6.5458974815340306E-24
-1                        0.6635414102482364       36.240310077519375       7.855076977840837E-24
-1                        0.32708282049647774      36.82170542635659        6.5458974815340555E-21
-1                        0.3270828204964782       37.2093023255814         6.5458974815340555E-21
-1                        0.009375769255284716     37.015503875969          6.545962940508871E-21
-1                        0.009375769255283162     36.62790697674419        1.3008792993786298E-44
-1                        -0.3270828204964827      37.59689922480621        7.855076978626587E-15
-1                        -0.3270828204964784      37.2093023255814         7.855076977919629E-15
-1                        -0.3270828204964784      37.2093023255814         3.92753848892059E-4
-1                        0.009375769255278499     37.403100775193806       3.92753848892059E-4
-1                        -0.3270828204964827      37.59689922480621        3.92753848892059E-4
-1                        -0.6635414102482418      37.4031007751938         6.5458974815342325E-15
-1                        -0.6635414102482373      37.01550387596899        6.545897481533852E-45
-1.0000000000000002       -1.0000000000000002      37.5968992248062         6.545897585940229E-14
-1                        -1                       37.984496124031          1.0545082297491774E-31
-1                        1                        36.046511627906966       2.1448156979027924E-63
-1                        1                        35.65891472868218        9.04922668999031E-56
-1                        0.6635414102482436       35.85271317829458        5.133372651741116E-38
-1                        0.6635414102482369       35.46511627906978        6.545897481534E-28
-1                        0.32708282049647996      36.046511627906966       4.277810543117597E-38
-1                        0.3270828204964762       36.434108527131784       4.2947633376343756E-45
-1                        0.009375769255286492     36.240310077519375       6.54589819777948E-54
-1                        0.009375769255275612     35.85271317829458        6.54589754699284E-55
-1                        -0.3270828204964762      36.434108527131784       1.1969946187997818E-36
-1                        -0.3270828204964777      36.82170542635659        7.855076977840817E-26
-1                        -0.3270828204964762      36.434108527131784       3.9275384889205206E-4
-1                        0.009375769255283162     36.62790697674419        3.9275384889205206E-4
-1                        -0.3270828204964777      36.82170542635659        3.9275384889205206E-4
-1                        -0.6635414102482402      36.627906976744185       9.974961802311985E-29
-1                        -0.6635414102482364      36.240310077519375       1.1969946307697404E-28
-1                        -1                       36.82170542635659        7.855076977840722E-35
-1                        -1                       37.2093023255814         1.044061073056434E-21
-1                        1                        35.27131782945737        6.5458974815340125E-40
-1.0000000000000002       1.0000000000000002       34.88372093023256        6.545897481534112E-15
-1                        0.6635414102482406       35.077519379844965       1.179039016780872E-47
-1                        0.6635414102482355       34.689922480620154       6.545897481534124E-14
-1                        0.3270828204964771       35.27131782945737        6.545897481599458E-28
-1                        0.3270828204964802       35.65891472868218        6.54589748202724E-28
-1                        0.00937576925528516      35.46511627906978        7.201751158295635E-39
-1                        0.009375769255281607     35.077519379844965       7.855076977919338E-29
-1                        -0.3270828204964802      35.65891472868218        1.263928608333013E-42
-1                        -0.32708282049648        36.046511627906966       6.546001887641082E-55
-1                        -0.6635414102482436      35.85271317829458        5.78905516699248E-59
-1                        -0.6635414102482369      35.46511627906978        6.545897481592999E-31
-1                        -0.6635414102482436      35.85271317829458        3.927538488920497E-9
-1                        -0.6635414102482364      36.240310077519375       3.927538488920497E-9
-1                        -1                       36.046511627906966       3.927538488920497E-9
-1                        -1                       36.434108527131784       1.496244255384365E-28
-1                        -1                       36.046511627906966       5.670249424140147E-59
-0.9999999999999998       0.9999999999999998       34.496124031007746       6.545897488073475E-14
-1                        1                        34.10852713178296        6.480438506718712E-24