% Model:              Cav_Hex_Unif_flux_v5.1.1 - Lin. Distn.mph
% Version:            COMSOL 5.5.0.359
% Date:               May 16 2022, 14:36
% Dimension:          3
% Nodes:              15166
% Expressions:        1
% Description:        Surface
% x                       y                        z                        Color
-1                        0.7341292700078723       49.73016380338987        0
-1                        1                        49.6124031007752         0
-1                        1                        50                       0
-1                        0.5999999999999999       50                       0
-1                        0.19999999999999948      50                       0
-1                        0.38111210693000125      49.63287709146556        0
-1                        0.6914798298975102       49.40570760710693        4.91061729970082E-34
-1                        1                        49.2248062015504         2.1606716118684843E-33
-1                        1                        48.83720930232559        1.9449050410167893E-35
-1                        0.6635414102482411       49.03100775193799        2.4553243446543586E-34
-1                        -0.022695248993348294    49.68716171430425        2.652761056986695E-44
-1                        -0.20000000000000018     50                       2.652761056986695E-44
-1                        0.09836177863380091      49.39526615978301        0
-1                        -0.39738041842737953     49.70397880746825        2.652761056986695E-44
-1                        -0.6000000000000001      50                       0
-1                        -0.21895298358957163     49.39176608722758        0
-1                        -0.7190093876056589      49.743567143472          0
-1                        -1                       50                       0
-1                        -0.013424971416534206    49.05095160054088        1.3692490940855347E-58
-1                        0.3631594067170336       49.217228872550585       1.3692490940855347E-58
-1                        1                        48.44961240310078        3.4620569871084515E-14
-1                        0.6635414102482369       48.64341085271319        1.5694803948154475E-39
-1                        0.3270828204964782       48.83720930232559        3.2413315509565706E-40
-1                        1                        48.06201550387597        4.154468384530142E-14
-1                        0.6635414102482375       48.25581395348838        9.818846222280945E-42
-1                        -0.009375769255285993    48.643410852713195       0
-1                        -0.6236248903756987      49.401377899805674       4.647430387188613E-24
-1                        -0.3387404875764728      48.81880760507406        1.211717339055848E-35
-1                        -0.3662068562419716      49.12636205546553        3.098286924800487E-24
-1                        -0.6645126092583694      49.00767976279964        1.858972166599979E-24
-1                        -1                       49.6124031007752         0
-1                        -1                       49.2248062015504         1.2891657511755696E-32
-1                        1                        47.674418604651166       3.0995736483988045E-36
-1                        0.66354141024824         47.868217054263575       1.309179496304126E-41
-0.9999999999999998       0.9999999999999998       47.28682170542636        4.6493604725982065E-36
-1                        0.66354141024824         47.48062015503877        4.2266913387254316E-37
-1                        0.3270828204964784       47.67441860465117        6.679671116223755E-24
-1                        0.32708282049647885      48.06201550387597        1.963769244456189E-41
-1                        0.32708282049647464      48.44961240310079        0
-1                        0.009375769255285604     48.25581395348838        1.9637692444531766E-69
-1                        -0.3270828204964747      48.44961240310079        3.927538488919743E-7
-1                        -0.009375769255285993    48.643410852713195       3.927538488919743E-7
-1                        -0.3387404875764728      48.81880760507406        3.927538488919743E-7
-1                        -0.3270828204964747      48.44961240310079        4.8619973264375186E-30
-1                        -0.32708282049647885     48.06201550387597        2.154366532637587E-42
-1                        0.00937576925528183      47.868217054263575       6.679604320180926E-24
-1                        -0.6635414102482369      48.64341085271319        3.963851520439404E-29
-1                        -0.3387404875764728      48.81880760507406        3.927538488919311E-9
-1                        -0.6635414102482369      48.64341085271319        3.927538488919311E-9
-1                        -0.3270828204964747      48.44961240310079        3.927538488919311E-9
-1                        -0.6635414102482375      48.25581395348838        4.8619973264375186E-30
-1                        -1                       48.44961240310078        3.720751654117528E-29
-1                        -1                       48.83720930232559        2.7296255176411055E-29
-1                        1                        46.511627906976756       3.846345314460541E-18
-1                        1                        46.89922480620155        5.76951797144594E-18
-1                        0.6635414102482429       46.70542635658915        6.993355117200635E-19
-1                        0.00937576925528183      47.48062015503877        1.9124095238054016E-22
-1                        0.32708282049647797      47.28682170542636        1.8589726892439543E-22
-1                        0.6635414102482375       47.09302325581397        0
-1                        0.3270828204964802       46.89922480620156        3.7219718156426853E-62
-1                        0.00937576925528294      47.09302325581397        2.3237151935945146E-22
-1                        -0.32708282049647885     47.28682170542636        1.311635379051458E-66
-1                        -0.66354141024824        47.868217054263575       1.3692490940856624E-56
-1                        -0.32708282049647774     47.67441860465117        2.154366532637587E-42
-1                        -0.6635414102482402      47.48062015503877        2.82379668407457E-44
-1                        -0.6635414102482373      47.09302325581397        6.058586827919763E-29
-1                        -1                       47.674418604651166       1.6356179109204414E-43
-1                        -1                       48.06201550387597        0
-0.9999999999999998       0.9999999999999998       45.736434108527135       1.5491434623970216E-14
-1                        1                        46.12403100775194        0
-1                        0.66354141024824         45.93023255813954        2.844048227904709E-40
-1                        0.3270828204964764       46.51162790697676        0
-1                        0.6635414102482351       46.31782945736435        4.865219734626769E-28
-1                        0.009375769255279165     46.705426356589165       1.0386170961320234E-22
-1                        0.32708282049647597      46.12403100775194        3.2431212255217156E-29
-1                        0.009375769255290933     46.317829457364354       4.196014262551938E-23
-1                        -0.32708282049648        46.89922480620156        1.2117173390563417E-28
-1                        -0.32708282049647636     46.51162790697676        4.196013068376099E-23
-1                        -0.6635414102482426      46.70542635658915        4.846869462335811E-29
-1                        -1                       46.89922480620155        1.8589721548759184E-19
-0.9999999999999998       -0.9999999999999998      47.28682170542636        9.404502837733963E-16
-1                        -1                       46.89922480620155        3.927538488920332E-4
-1                        -0.6635414102482373      47.09302325581397        3.927538488920332E-4
-0.9999999999999998       -0.9999999999999998      47.28682170542636        3.927538488920332E-4
-1                        1                        45.348837209302346       1.6208826144240228E-56
-1                        0.6635414102482426       45.54263565891474        1.2558629920702426E-16
-1                        1                        44.96124031007753        1.6208826144268964E-23
-1                        0.6635414102482375       45.15503875968994        2.615189869404556E-23
-1                        0.3270828204964831       45.736434108527135       1.255862992070321E-16
-1                        0.3270828204964802       45.34883720930235        1.0485832511623677E-14
-1                        0.00937576925527872      45.93023255813954        1.979686266022844E-29
-1                        0.009375769255273614     45.542635658914755       3.381353070984736E-14
-1                        -0.32708282049648396     45.736434108527135       4.226691338730908E-14
-1                        -0.3270828204964751      46.12403100775194        5.193089707692057E-25
-1                        -0.6635414102482349      46.31782945736435        7.85507697783565E-23
-1                        -0.66354141024824        45.93023255813954        1.9637692444582302E-22
-1                        -1                       46.12403100775194        4.226691339712871E-13
-1                        -1                       46.511627906976756       2.323715193594898E-19
-1                        0.66354141024824         44.76744186046513        7.595407870520914E-13
-1.0000000000000002       1.0000000000000002       44.573643410852725       6.509000567817356E-50
-1                        1                        44.18604651162791        8.8369616000659E-15
-1                        0.6635414102482335       44.37984496124031        1.0127210493679195E-12
-1                        0.32708282049647264      44.57364341085273        5.063605246839597E-13
-1                        0.32708282049647797      44.96124031007754        8.633583057249088E-15
-1                        0.009375769255284938     45.155038759689944       1.0360299649252173E-14
-1                        0.009375769255284494     44.76744186046514        6.679604282974875E-20
-1                        -0.3270828204964782      44.96124031007754        2.9426715047173945E-40
-1                        -0.3270828204964802      45.34883720930235        2.8193433692831064E-14
-1                        -0.6635414102482429      45.54263565891474        1.6906765354926376E-11
-1                        -0.32708282049648396     45.736434108527135       1.6906765354926376E-11
-1                        -0.66354141024824        45.93023255813954        1.6906765354926376E-11
-1                        -0.6635414102482429      45.54263565891474        3.098286924986928E-17
-1                        -0.6635414102482375      45.15503875968994        2.3237151935951505E-17
-1                        -1                       45.348837209302346       1.295030776552154E-13
-0.9999999999999998       -0.9999999999999998      45.736434108527135       0
-1                        1                        43.7984496124031         4.226691338729371E-20
-1                        0.6635414102482411       43.992248062015506       3.923488841662351E-35
-1                        1                        43.41085271317829        4.226691338729368E-20
-1                        0.6635414102482369       43.6046511627907         5.635588451639157E-20
-1                        0.3270828204964782       43.798449612403104       7.157938896044736E-37
-1                        0.32708282049647464      44.18604651162791        2.133036170928881E-37
-1                        0.009375769255293155     44.379844961240316       2.1330361709316844E-13
-1                        0.00937576925528294      43.992248062015506       1.7064289367453476E-13
-1                        -0.32708282049647264     44.57364341085273        0
-1                        -0.32708282049647464     44.18604651162791        2.844048227908913E-13
-1                        -0.6635414102482402      44.76744186046513        5.885233262491914E-40
-1                        -0.6635414102482333      44.37984496124031        0
-1                        -0.6635414102482333      44.37984496124031        1.6906765354926714E-9
-1                        -0.6635414102482402      44.76744186046513        1.6906765354926714E-9
-1.0000000000000002       -1.0000000000000002      44.573643410852725       1.6906765354926714E-9
-1                        -1                       44.96124031007753        2.323715193595404E-15
-1.0000000000000002       -1.0000000000000002      44.573643410852725       2.7667437267675877E-40
-1                        1                        43.02325581395349        1.1803935839758332E-31
-1                        0.6635414102482411       43.2170542635659         8.45338267746059E-16
-1                        1                        42.63565891472869        3.3813530709821985E-27
-1                        0.663541410248242        42.82945736434109        1.2577566428354612E-22
-1                        0.3270828204964824       43.02325581395349        3.381353070984248E-16
-1                        0.3270828204964773       43.41085271317829        4.226691338730295E-16
-1                        0.3270828204964773       43.41085271317829        1.1770466525003173E-9
-1                        0.6635414102482369       43.6046511627907         1.1770466525003173E-9
-1                        0.3270828204964782       43.798449612403104       1.1770466525003173E-9
-1                        0.009375769255284938     43.6046511627907         4.22669133872983E-18
-1                        0.3270828204964782       43.798449612403104       1.0593419872503435E-8
-1                        0.00937576925528294      43.992248062015506       1.0593419872503435E-8
-1                        0.009375769255284938     43.6046511627907         1.0593419872503435E-8
-1                        0.009375769255280275     43.2170542635659         7.549055985401526E-14
-1                        0.3270828204964773       43.41085271317829        1.910386363921606E-8
-1                        0.009375769255284938     43.6046511627907         1.910386363921606E-8
-1                        0.009375769255280275     43.2170542635659         1.910386363921606E-8
-1                        -0.32708282049647797     43.798449612403104       4.226691338731156E-18
-1                        -0.32708282049647724     43.41085271317829        5.6622146581850173E-14
-1                        -0.6635414102482406      43.992248062015506       6.543273630909944E-13
-1                        -0.6635414102482367      43.6046511627907         4.907455595320511E-13
-1                        -1                       43.7984496124031         3.2716379726098604E-13
-1                        -1                       44.18604651162791        5.726469667584977E-28
-1                        1                        42.24806201550388        0
-1                        0.6635414102482375       42.441860465116285       4.146259838622302E-22
-0.9999999999999998       0.9999999999999998       41.86046511627906        1.639573689688908E-11
-1                        1                        42.24806201550388        1.639573689688908E-11
-1                        0.6635414102482335       42.05426356589147        1.639573689688908E-11
-1                        0.6635414102482335       42.05426356589147        1.5548434384303177E-10
-1                        1                        42.24806201550388        1.5548434384303177E-10
-1                        0.6635414102482375       42.441860465116285       1.5548434384303177E-10
-1                        0.6635414102482335       42.05426356589147        8.081356925266392E-14
-1                        0.3270828204964713       42.24806201550388        2.4309990246557912E-15
-1                        0.32708282049647974      42.635658914728694       4.1462260368955277E-22
-1                        0.009375769255276944     42.8294573643411         2.425449533948974E-30
-1                        0.009375769255286936     42.4418604651163         4.702251418869298E-6
-1                        0.3270828204964713       42.24806201550388        4.702251418869298E-6
-1                        0.32708282049647974      42.635658914728694       4.702251418869298E-6
-1                        0.009375769255286936     42.4418604651163         1.946056656057713E-15
-1                        -0.32708282049648224     43.02325581395349        4.531951938416073E-14
-1                        0.009375769255276944     42.8294573643411         1.0593419872502473E-10
-1                        0.009375769255280275     43.2170542635659         1.0593419872502473E-10
-1                        -0.32708282049648224     43.02325581395349        1.0593419872502473E-10
-1                        -0.32708282049648046     42.635658914728694       1.71004075287947E-15
-1                        -0.6635414102482409      43.2170542635659         2.2647167956209545E-9
-1                        -0.32708282049647724     43.41085271317829        2.2647167956209545E-9
-1                        -0.6635414102482367      43.6046511627907         2.2647167956209545E-9
-1                        -0.6635414102482409      43.2170542635659         2.853672305871072E-17
-1                        -0.6635414102482418      42.82945736434109        2.4023324961976255E-16
-1                        -1                       43.02325581395349        2.0875685254691941E-16
-1                        -1                       43.41085271317829        2.729012388898174E-20
-0.9999999999999998       0.9999999999999998       41.47286821705427        1.6311654496976112E-18
-0.9999999999999998       0.9999999999999998       41.86046511627906        2.4467201985867185E-18
-1                        0.6635414102482429       41.66666666666666        4.04099686221476E-14
-0.9999999999999998       0.9999999999999998       41.08527131782947        1.227941374607151E-14
-1                        0.663541410248242        41.27906976744187        1.8762530966374598E-23
-1                        0.32708282049648485      41.47286821705427        3.3460439145088297E-18
-1                        0.32708282049647486      41.86046511627906        8.081993720721033E-14
-1                        0.32708282049647486      41.86046511627906        9.245898270867137E-9
-1                        0.6635414102482335       42.05426356589147        9.245898270867137E-9
-1                        0.3270828204964713       42.24806201550388        9.245898270867137E-9
-1                        0.00937576925529382      42.05426356589147        3.911338641504256E-13
-1                        0.00937576925527761      41.66666666666666        2.4314213456179057E-19
-1                        0.32708282049647486      41.86046511627906        3.534784640027908E-6
-1                        0.00937576925529382      42.05426356589147        3.534784640027908E-6
-1                        0.00937576925527761      41.66666666666666        3.534784640027908E-6
-1                        -0.3270828204964751      41.86046511627906        2.591664813497082E-13
-1                        -0.3270828204964704      42.24806201550388        3.1270746308739233E-13
-1                        -0.6635414102482373      42.441860465116285       2.4234346781626976E-11
-1                        -0.32708282049648046     42.635658914728694       2.4234346781626976E-11
-1                        -0.6635414102482418      42.82945736434109        2.4234346781626976E-11
-1                        -0.6635414102482373      42.441860465116285       4.266072930386227E-15
-1                        -0.6635414102482333      42.05426356589147        1.9629820892731683E-10
-1                        -0.3270828204964704      42.24806201550388        1.9629820892731683E-10
-1                        -0.6635414102482373      42.441860465116285       1.9629820892731683E-10
-1                        -0.6635414102482333      42.05426356589147        5.0896692564365685E-17
-1                        -0.6635414102482333      42.05426356589147        3.5348987869196113E-9
-1                        -0.6635414102482373      42.441860465116285       3.5348987869196113E-9
-1                        -1                       42.24806201550388        3.5348987869196113E-9
-1                        -1                       42.63565891472869        2.783428624114434E-16
-1                        -1                       42.24806201550388        2.9426166312488605E-22
-1                        -0.6635414102482373      42.441860465116285       2.4267083790127608E-9
-1                        -0.6635414102482418      42.82945736434109        2.4267083790127608E-9
-1                        -1                       42.63565891472869        2.4267083790127608E-9
-1                        1                        40.69767441860465        8.090332102930278E-14
-1                        0.663541410248236        40.89147286821706        7.131370838608003E-14
-1                        1                        40.310077519379846       5.3055224852751394E-11
-1                        1                        40.69767441860465        5.3055224852751394E-11
-1                        0.6635414102482402       40.50387596899225        5.3055224852751394E-11
-1                        0.6635414102482402       40.50387596899225        6.598126719186258E-14
-1                        0.6635414102482369       40.11627906976744        8.275302868088772E-12
-1                        1                        40.310077519379846       6.790412491035718E-12
-1                        0.6635414102482402       40.50387596899225        8.275302868088772E-12
-1                        0.3270828204964764       40.69767441860465        6.471219242555295E-14
-1                        0.3270828204964773       41.08527131782947        2.7412563546646193E-14
-1                        0.0093757692552765       41.279069767441875       1.0379694201827397E-16
-1                        0.009375769255288269     40.891472868217065       2.2343397968028278E-14
-1                        0.3270828204964764       40.69767441860465        6.225279749871954E-11
-1                        0.009375769255288269     40.891472868217065       6.225279749871954E-11
-1                        0.009375769255283828     40.503875968992254       6.225279749871954E-11
-1                        -0.3270828204964844      41.47286821705427        3.233982407105387E-16
-1                        -0.3270828204964773      41.08527131782947        2.9829743713255225E-9
-1                        0.0093757692552765       41.279069767441875       2.9829743713255225E-9
-1                        -0.3270828204964844      41.47286821705427        2.9829743713255225E-9
-1                        -0.3270828204964773      41.08527131782947        1.973716290440814E-15
-1                        -0.6635414102482418      41.66666666666666        2.695399453449583E-18
-1                        -0.6635414102482418      41.27906976744187        1.0402416003663021E-13
-0.9999999999999998       -0.9999999999999998      41.47286821705427        1.5560182423613622E-13
-0.9999999999999998       -0.9999999999999998      41.86046511627906        3.9430032847393453E-16
-1                        1                        39.922480620155035       1.2929286815753763E-14
-1                        1                        40.310077519379846       1.1156573541559175E-46
-1                        0.6635414102482369       40.11627906976744        1.6161655374740143E-14
-1                        1                        39.53488372093023        4.093494849533606E-31
-1                        0.6635414102482411       39.72868217054263        2.1548815000789453E-14
-1                        0.6635414102482369       39.34108527131784        2.7308999310134333E-21
-1                        0.6635414102482411       39.72868217054263        3.4780821156279145E-10
-1                        0.6635414102482369       40.11627906976744        3.4780821156279145E-10
-1                        0.3270828204964782       39.922480620155035       3.4780821156279145E-10
-1                        0.32708282049647597      40.31007751937985        1.4128325063559346E-19
-1                        0.3270828204964782       39.922480620155035       5.228263983429153E-29
-1                        0.009375769255283828     40.503875968992254       7.367651521100768E-11
-1                        0.32708282049647597      40.31007751937985        7.367651521100768E-11
-1                        0.3270828204964764       40.69767441860465        7.367651521100768E-11
-1                        0.009375769255286714     40.116279069767444       4.854423612444136E-17
-1                        0.009375769255283828     40.503875968992254       3.641240885280615E-14
-1                        0.009375769255281385     39.72868217054264        8.578693949011227E-20
-1                        0.009375769255286714     40.116279069767444       1.690676535496577E-5
-1                        0.009375769255283828     40.503875968992254       1.690676535496577E-5
-1                        -0.3270828204964759      40.31007751937985        1.690676535496577E-5
-1                        -0.32708282049647636     40.69767441860465        2.3498016933937217E-14
-1                        -0.3270828204964759      40.31007751937985        6.079921832960795E-17
-1                        -0.663541410248236       40.89147286821706        1.0483756757372377E-15
-1                        -0.66354141024824        40.50387596899225        4.099769742875246E-19
-1                        -0.3270828204964759      40.31007751937985        8.275302868087777E-10
-1                        -0.32708282049647636     40.69767441860465        8.275302868087777E-10
-1                        -0.66354141024824        40.50387596899225        8.275302868087777E-10
-1                        -0.6635414102482369      40.11627906976744        5.31595560272624E-16
-1                        -1                       40.69767441860465        3.1839831355587964E-16
-0.9999999999999998       -0.9999999999999998      41.08527131782947        1.0375466249785452E-13
-1                        1                        39.14728682170542        3.60700546468307E-29
-1                        1                        38.75968992248062        1.292442833244663E-13
-1                        0.6635414102482411       38.95348837209302        4.349779210769366E-16
-1                        0.6635414102482402       38.565891472868216       1.2924431001006567E-13
-1                        0.6635414102482411       38.95348837209302        7.604994809872934E-10
-1                        0.6635414102482369       39.34108527131784        7.604994809872934E-10
-1                        0.3270828204964773       39.14728682170542        7.604994809872934E-10
-1                        0.3270828204964782       39.53488372093024        1.466194323315224E-19
-1                        0.3270828204964773       39.14728682170542        3.5347848186203346E-4
-1                        0.6635414102482369       39.34108527131784        3.5347848186203346E-4
-1                        0.3270828204964782       39.53488372093024        3.5347848186203346E-4
-1                        0.3270828204964782       39.53488372093024        6.444816642605408E-11
-1                        0.6635414102482411       39.72868217054263        6.444816642605408E-11
-1                        0.3270828204964782       39.922480620155035       6.444816642605408E-11
-1                        0.009375769255284272     39.34108527131784        2.982974371325193E-11
-1                        0.3270828204964773       39.14728682170542        2.982974371325193E-11
-1                        0.3270828204964782       39.53488372093024        2.982974371325193E-11
-1                        0.009375769255284272     39.34108527131784        8.579060612813875E-20
-1                        0.3270828204964773       39.14728682170542        1.856460242007E-20
-1                        0.009375769255280943     38.95348837209303        1.298711382455616E-18
-1                        -0.3270828204964782      39.53488372093024        1.4506013425437203E-14
-1                        -0.3270828204964773      39.922480620155035       6.058603545935175E-17
-1                        -0.3270828204964782      39.53488372093024        1.092360347155096E-9
-1                        0.009375769255281385     39.72868217054264        1.092360347155096E-9
-1                        -0.3270828204964773      39.922480620155035       1.092360347155096E-9
-1                        -0.6635414102482411      39.72868217054263        6.64375056570142E-16
-1                        -0.3270828204964782      39.53488372093024        6.740259839461025E-12
-1                        -0.3270828204964773      39.922480620155035       6.740259839461025E-12
-1                        -0.6635414102482411      39.72868217054263        6.740259839461025E-12
-1                        -0.6635414102482369      39.34108527131784        2.061704946634545E-13
-1                        -1                       39.922480620155035       5.315969971962445E-16
-1                        -1                       40.310077519379846       1.0467531110376414E-18
-1                        1                        38.372093023255815       1.0745573612131337E-13
-1                        1                        37.984496124031          8.046016208888078E-20
-1                        0.663541410248236        38.178294573643406       1.5563645772932306E-22