% Model:              Cav_Hex_Unif_flux_v5.1.1 - Lin. Distn.mph
% Version:            COMSOL 5.5.0.359
% Date:               May 16 2022, 14:36
% Dimension:          3
% Nodes:              8651
% Expressions:        1
% Description:        Surface
% x                       y                        z                        Color
-1                        0.7341292700078723       49.73016380338987        1.963769244460615E-92
-1                        1                        49.6124031007752         1.3091794963070767E-92
-1                        1                        50                       0
-1                        0.5999999999999999       50                       0
-1                        0.19999999999999948      50                       1.9637692444607217E-113
-1                        0.38111210693000125      49.63287709146556        1.9637692444607217E-113
-1                        0.6914798298975102       49.40570760710693        1.963769244460615E-92
-1                        1                        49.2248062015504         9.818846222302636E-59
-1                        1                        48.83720930232559        1.0800730844532697E-57
-1                        0.6635414102482411       49.03100775193799        1.4400974459376928E-57
-1                        -0.022695248993348294    49.68716171430425        1.3091794963070105E-62
-1                        -0.20000000000000018     50                       1.963769244460516E-62
-1                        0.09836177863380091      49.39526615978301        1.96376924446071E-110
-1                        -0.39738041842737953     49.70397880746825        1.963769244460516E-62
-1                        -0.6000000000000001      50                       0
-1                        -0.21895298358957163     49.39176608722758        0
-1                        -0.7190093876056589      49.743567143472          0
-1                        -1                       50                       0
-1                        -0.013424971416534206    49.05095160054088        1.96376924446071E-110
-1                        0.3631594067170336       49.217228872550585       1.96376924446071E-110
-1                        1                        48.44961240310078        7.85507697784195E-58
-1                        0.6635414102482369       48.64341085271319        1.309179496306991E-57
-1                        0.3270828204964782       48.83720930232559        1.963769244460534E-68
-1                        1                        48.06201550387597        6.545897482189547E-58
-1                        0.6635414102482375       48.25581395348838        9.818846222302814E-76
-1                        -0.009375769255285993    48.643410852713195       1.3091794963070226E-68
-1                        -0.6236248903756987      49.401377899805674       0
-1                        -0.3387404875764728      48.81880760507406        1.3091794963071792E-117
-1                        -0.3662068562419716      49.12636205546553        0
-1                        -0.6645126092583694      49.00767976279964        1.4400974459379247E-132
-1                        -1                       49.6124031007752         0
-1                        -1                       49.2248062015504         9.818846222302995E-84
-1                        1                        47.674418604651166       1.3091794963072322E-143
-1                        0.66354141024824         47.868217054263575       1.3091794963085195E-135
-0.9999999999999998       0.9999999999999998       47.28682170542636        6.54589748153578E-70
-1                        0.66354141024824         47.48062015503877        7.855076977842227E-70
-1                        0.3270828204964784       47.67441860465117        1.3091794963070568E-80
-1                        0.32708282049647885      48.06201550387597        1.963769244460585E-80
-1                        0.32708282049647464      48.44961240310079        1.963769244460534E-68
-1                        0.009375769255285604     48.25581395348838        1.3091794963071144E-101
-1                        -0.3270828204964747      48.44961240310079        9.818846222303458E-102
-1                        -0.32708282049647885     48.06201550387597        1.9637692444608229E-137
-1                        0.00937576925528183      47.868217054263575       1.3091794963070568E-80
-1                        -0.6635414102482369      48.64341085271319        6.545897546994197E-77
-1                        -0.6635414102482375      48.25581395348838        1.3091794963071552E-115
-1                        -1                       48.44961240310078        7.20048729514772E-77
-1                        -1                       48.83720930232559        7.20048729514772E-77
-1                        1                        46.511627906976756       7.265946204504179E-82
-1                        1                        46.89922480620155        1.374638471122426E-82
-1                        0.6635414102482429       46.70542635658915        1.080073084453326E-82
-1                        0.00937576925528183      47.48062015503877        1.963769244460714E-111
-1                        0.32708282049647797      47.28682170542636        1.3091794963070648E-83
-1                        0.6635414102482375       47.09302325581397        9.818846222302784E-70
-1                        0.3270828204964802       46.89922480620156        1.3091794963071054E-89
-1                        0.00937576925528294      47.09302325581397        7.855076977842179E-63
-1                        -0.32708282049647885     47.28682170542636        1.309179496307096E-94
-1                        -0.66354141024824        47.868217054263575       0
-1                        -0.32708282049647774     47.67441860465117        1.9637692444607774E-126
-1                        -0.6635414102482402      47.48062015503877        1.3235804707665553E-123
-1                        -0.6635414102482373      47.09302325581397        9.818846222302544E-55
-1                        -1                       47.674418604651166       7.855076977841931E-57
-1                        -1                       48.06201550387597        1.309179496307196E-130
-0.9999999999999998       0.9999999999999998       45.736434108527135       7.855076977842549E-89
-1                        1                        46.12403100775194        6.545904027432787E-83
-1                        0.66354141024824         45.93023255813954        6.545897481535306E-83
-1                        0.3270828204964764       46.51162790697676        7.855076977842033E-63
-1                        0.6635414102482351       46.31782945736435        1.3091794963725204E-82
-1                        0.009375769255279165     46.705426356589165       7.855078548857313E-56
-1                        0.32708282049647597      46.12403100775194        7.20048722968945E-80
-1                        0.009375769255290933     46.317829457364354       7.8550777633496135E-56
-1                        -0.32708282049648        46.89922480620156        7.855076977842179E-63
-1                        -0.32708282049647636     46.51162790697676        9.818846222302396E-56
-1                        -0.6635414102482426      46.70542635658915        6.545897481535029E-55
-1                        -1                       46.89922480620155        6.545897481535029E-55
-0.9999999999999998       -0.9999999999999998      47.28682170542636        6.545904027433081E-104
-1                        1                        45.348837209302346       7.942268332296761E-103
-1                        0.6635414102482426       45.54263565891474        2.6347430656337005E-78
-1                        1                        44.96124031007753        7.200487229689016E-90
-1                        0.6635414102482375       45.15503875968994        2.6347430656337005E-78
-1                        0.3270828204964831       45.736434108527135       6.545897482189858E-80
-1                        0.3270828204964802       45.34883720930235        3.293428832042126E-78
-1                        0.00937576925527872      45.93023255813954        6.5458974821898584E-80
-1                        0.009375769255273614     45.542635658914755       6.5458974815351815E-74
-1                        -0.32708282049648396     45.736434108527135       1.0800730844533643E-94
-1                        -0.3270828204964751      46.12403100775194        9.818846222303236E-96
-1                        -0.6635414102482349      46.31782945736435        9.81884622230301E-85
-1                        -0.66354141024824        45.93023255813954        9.828665068525526E-95
-1                        -1                       46.12403100775194        1.3091794963071653E-119
-1                        -1                       46.511627906976756       6.54589748153534E-85
-1                        0.66354141024824         44.76744186046513        6.545897481600817E-78
-1.0000000000000002       1.0000000000000002       44.573643410852725       7.20048722968893E-89
-1                        1                        44.18604651162791        7.85507697784125E-16
-1                        0.6635414102482335       44.37984496124031        6.552443379016579E-64
-1                        0.32708282049647264      44.57364341085273        7.855076977842432E-78
-1                        0.32708282049647797      44.96124031007754        7.855076977850286E-78
-1                        0.009375769255284938     45.155038759689944       6.545898136124832E-67
-1                        0.009375769255284494     44.76744186046514        6.611356456350524E-65
-1                        -0.3270828204964782      44.96124031007754        7.933627747620629E-65
-1                        -0.3270828204964802      45.34883720930235        9.81884622230277E-74
-1                        -0.6635414102482429      45.54263565891474        6.54589748153499E-60
-1                        -0.6635414102482375      45.15503875968994        9.818846222302485E-60
-1                        -1                       45.348837209302346       7.855076977841988E-60
-0.9999999999999998       -0.9999999999999998      45.736434108527135       6.545897481541898E-86
-1                        1                        43.7984496124031         6.54589748873581E-84
-1                        0.6635414102482411       43.992248062015506       6.552443379016579E-64
-1                        1                        43.41085271317829        6.545897481535322E-84
-1                        0.6635414102482369       43.6046511627907         6.54589748808122E-84
-1                        0.3270828204964782       43.798449612403104       6.545969486407621E-84
-1                        0.32708282049647464      44.18604651162791        8.640584675626722E-89
-1                        0.009375769255293155     44.379844961240316       9.818846222303382E-94
-1                        0.00937576925528294      43.992248062015506       7.855076977841798E-49
-1                        -0.32708282049647264     44.57364341085273        6.545897481535173E-65
-1                        -0.32708282049647464     44.18604651162791        9.818846222302248E-49
-1                        -0.6635414102482402      44.76744186046513        7.935206618101342E-87
-1                        -0.6635414102482333      44.37984496124031        7.855076978627874E-83
-1.0000000000000002       -1.0000000000000002      44.573643410852725       7.201214544358011E-83
-1                        -1                       44.96124031007753        7.338736584498915E-86
-1                        1                        43.02325581395349        2.19561922136138E-70
-1                        0.6635414102482411       43.2170542635659         6.5458981426714246E-108
-1                        1                        42.63565891472869        7.855076977841196E-13
-1                        0.663541410248242        42.82945736434109        8.118551284405501E-69
-1                        0.3270828204964824       43.02325581395349        1.9637692444607119E-87
-1                        0.3270828204964773       43.41085271317829        1.5710153955684917E-87
-1                        0.009375769255284938     43.6046511627907         9.818846222302986E-84
-1                        0.009375769255280275     43.2170542635659         1.3353630862332365E-85
-1                        -0.32708282049647797     43.798449612403104       7.855076977841798E-49
-1                        -0.32708282049647724     43.41085271317829        7.855076977841618E-38
-1                        -0.6635414102482406      43.992248062015506       7.855076977842368E-83
-1                        -0.6635414102482367      43.6046511627907         7.200487230343412E-82
-1                        -1                       43.7984496124031         7.855076977841612E-38
-1                        -1                       44.18604651162791        7.855076977842367E-83
-1                        1                        42.24806201550388        8.640584675704564E-51
-1                        0.6635414102482375       42.441860465116285       9.818846320491231E-69
-0.9999999999999998       0.9999999999999998       41.86046511627906        7.200487229753803E-51
-1                        0.6635414102482335       42.05426356589147        7.855076977920378E-51
-1                        0.3270828204964713       42.24806201550388        7.855076977841763E-47
-1                        0.32708282049647974      42.635658914728694       6.545897481534803E-47
-1                        0.009375769255276944     42.8294573643411         7.855076977842084E-66
-1                        0.009375769255286936     42.4418604651163         6.545897481534803E-47
-1                        -0.32708282049648224     43.02325581395349        9.818846222302023E-38
-1                        -0.32708282049648046     42.635658914728694       6.545897481606914E-54
-1                        -0.6635414102482409      43.2170542635659         7.855076977841618E-38
-1                        -0.6635414102482418      42.82945736434109        7.85507697784189E-54
-1                        -1                       43.02325581395349        6.545897481535495E-88
-1                        -1                       43.41085271317829        7.855076978627857E-82
-0.9999999999999998       0.9999999999999998       41.47286821705427        6.545897481535085E-67
-1                        0.6635414102482429       41.66666666666666        7.855076977842582E-95
-0.9999999999999998       0.9999999999999998       41.08527131782947        6.545897546993723E-43
-1                        0.663541410248242        41.27906976744187        6.545897546994155E-74
-1                        0.32708282049648485      41.47286821705427        9.818846222401327E-91
-1                        0.32708282049647486      41.86046511627906        1.3091794963201427E-79
-1                        0.00937576925529382      42.05426356589147        7.855076985698085E-116
-1                        0.00937576925527761      41.66666666666666        7.855076977841758E-46
-1                        0.32708282049647486      41.86046511627906        3.927538488920557E-7
-1                        0.00937576925529382      42.05426356589147        3.927538488920557E-7
-1                        0.00937576925527761      41.66666666666666        3.927538488920557E-7
-1                        -0.3270828204964751      41.86046511627906        6.5458974821896905E-68
-1                        -0.3270828204964704      42.24806201550388        6.545897488080823E-56
-1                        -0.6635414102482373      42.441860465116285       7.855076977841912E-56
-1                        -0.6635414102482333      42.05426356589147        7.855076977841911E-56
-1                        -0.6635414102482333      42.05426356589147        3.9275384889205795E-10
-1                        -0.6635414102482373      42.441860465116285       3.9275384889205795E-10
-1                        -1                       42.24806201550388        3.9275384889205795E-10
-1                        -1                       42.63565891472869        8.640584675626406E-72
-1                        -1                       42.24806201550388        9.818847312194662E-72
-1                        1                        40.69767441860465        7.200487229688025E-30
-1                        0.663541410248236        40.89147286821706        6.545897481534792E-46
-1                        1                        40.310077519379846       7.200487229688025E-30
-1                        0.6635414102482402       40.50387596899225        6.545897481534568E-30
-1                        0.6635414102482369       40.11627906976744        6.545897481534607E-33
-1                        0.3270828204964764       40.69767441860465        6.545904682021935E-40
-1                        0.3270828204964773       41.08527131782947        6.545897482189744E-64
-1                        0.0093757692552765       41.279069767441875       6.5458981361245475E-46
-1                        0.009375769255288269     40.891472868217065       6.545898790714856E-40
-1                        0.009375769255283828     40.503875968992254       6.611356456349755E-19
-1                        -0.3270828204964844      41.47286821705427        6.545897488080696E-46
-1                        -0.3270828204964773      41.08527131782947        6.545897481534638E-35
-1                        -0.6635414102482418      41.66666666666666        6.545897481534926E-55
-1                        -0.6635414102482418      41.27906976744187        6.545897546994332E-35
-0.9999999999999998       -0.9999999999999998      41.47286821705427        6.545904027432233E-43
-0.9999999999999998       -0.9999999999999998      41.86046511627906        6.5458974815348E-47
-1                        1                        39.922480620155035       6.545897481534607E-33
-1                        1                        39.53488372093023        7.200487229688047E-31
-1                        0.6635414102482411       39.72868217054263        6.676815431165278E-31
-1                        0.6635414102482369       39.34108527131784        7.855077056392272E-31
-1                        0.3270828204964782       39.922480620155035       6.545897481534618E-33
-1                        0.32708282049647597      40.31007751937985        6.54589748153444E-21
-1                        0.009375769255286714     40.116279069767444       6.611356456349755E-19
-1                        0.009375769255281385     39.72868217054264        6.545897481534542E-28
-1                        -0.3270828204964759      40.31007751937985        6.5458975469933865E-19
-1                        -0.32708282049647636     40.69767441860465        6.545897481534534E-27
-1                        -0.663541410248236       40.89147286821706        7.855076977842352E-35
-1                        -0.66354141024824        40.50387596899225        7.855076977841441E-27
-1                        -0.6635414102482369      40.11627906976744        2.1956192213613597E-66
-1                        -1                       40.69767441860465        7.855076977841665E-33
-0.9999999999999998       -0.9999999999999998      41.08527131782947        6.545897482189317E-33
-1                        1                        39.14728682170542        7.2004878842849265E-62
-1                        1                        38.75968992248062        7.855076977841618E-38
-1                        0.6635414102482411       38.95348837209302        7.855076978627279E-39
-1                        0.6635414102482402       38.565891472868216       6.545897481534682E-38
-1                        0.3270828204964773       39.14728682170542        7.86293205560512E-39
-1                        0.3270828204964782       39.53488372093024        7.855076985696619E-33
-1                        0.3270828204964773       39.14728682170542        3.927538488920537E-5
-1                        0.6635414102482369       39.34108527131784        3.927538488920537E-5
-1                        0.3270828204964782       39.53488372093024        3.927538488920537E-5
-1                        0.009375769255284272     39.34108527131784        6.545897481534602E-28
-1                        0.009375769255280943     38.95348837209303        6.546552071348299E-38
-1                        -0.3270828204964782      39.53488372093024        6.545897481534542E-28
-1                        -0.3270828204964773      39.922480620155035       6.54589748160028E-43
-1                        -0.6635414102482411      39.72868217054263        7.855077056393358E-49
-1                        -0.6635414102482369      39.34108527131784        6.545897481535491E-49
-1                        -1                       39.922480620155035       7.855076977841981E-60
-1                        -1                       40.310077519379846       6.553752558513319E-95
-1                        1                        38.372093023255815       6.545897481534682E-38
-1                        1                        37.984496124031          7.2004872296881886E-40
-1                        0.663541410248236        38.178294573643406       7.855076977841659E-40
-1                        0.6635414102482411       37.7906976744186         8.640584675625819E-40
-1                        0.3270828204964764       38.372093023255815       7.855076977841399E-25
-1                        0.32708282049648085      38.759689922480625       6.545897481534764E-44
-1                        0.00937576925528183      38.56589147286822        6.545897481535155E-25
-1                        0.009375769255289157     38.17829457364341        7.855076977841399E-25
-1                        -0.3270828204964799      38.759689922480625       6.611363002248134E-36
-1                        -0.32708282049647813     39.14728682170542        6.545897481534843E-50
-1                        -0.6635414102482409      38.95348837209302        6.611356456356883E-60
-1                        -0.6635414102482402      38.565891472868216       6.545897488080549E-36
-1                        -1                       39.14728682170542        6.545897481535131E-62
-1                        -1                       39.53488372093023        3.9275384889205816E-10
-1                        -0.6635414102482411      39.72868217054263        3.9275384889205816E-10
-1                        -1                       39.922480620155035       3.9275384889205816E-10
-1                        -1                       39.53488372093023        9.818846222302254E-49
-1.0000000000000002       1.0000000000000002       37.5968992248062         6.545897481534722E-41
-1                        1                        37.2093023255814         7.200487230343812E-99
-1                        0.6635414102482411       37.4031007751938         6.545897481534358E-15
-1                        0.6635414102482375       37.01550387596899        6.545897481534358E-15
-1                        0.3270828204964824       37.59689922480621        6.5458974815349915E-52
-1                        0.6635414102482411       37.7906976744186         3.927538488920591E-11
-1                        0.663541410248236        38.178294573643406       3.927538488920591E-11
-1                        0.32708282049647686      37.984496124031          3.927538488920591E-11
-1                        0.32708282049647686      37.984496124031          9.818846222302659E-68
-1                        0.00937576925527761      37.790697674418595       6.545904027433242E-68
-1                        0.009375769255278499     37.403100775193806       7.855076977841989E-52
-1                        -0.32708282049647647     38.372093023255815       6.545897481534651E-36
-1                        -0.32708282049647686     37.984496124031          6.545897481534696E-39
-1                        -0.663541410248236       38.178294573643406       6.61135652180899E-37
-1                        -0.6635414102482411      37.7906976744186         6.552443379022641E-25
-1                        -1                       38.372093023255815       6.545897481534775E-45
-1                        -1                       38.75968992248062        6.545897481542186E-60
-1                        1                        36.82170542635659        7.200487229688504E-61
-1                        1                        36.434108527131784       6.545897481534481E-24
-1                        0.6635414102482402       36.627906976744185       6.545897481534481E-24
-1                        0.6635414102482364       36.240310077519375       7.200487229687932E-24
-1                        0.32708282049647774      36.82170542635659        6.545897481534438E-21
-1                        0.3270828204964782       37.2093023255814         6.54590402743184E-15
-1                        0.009375769255284716     37.015503875969          6.545963595099001E-21
-1                        0.009375769255283162     36.62790697674419        6.54589748808037E-23
-1                        -0.3270828204964827      37.59689922480621        7.855077841900691E-74
-1                        -0.3270828204964784      37.2093023255814         7.933627747619827E-26
-1                        -0.3270828204964784      37.2093023255814         3.9275384889206024E-4
-1                        0.009375769255278499     37.403100775193806       3.9275384889206024E-4
-1                        -0.3270828204964827      37.59689922480621        3.9275384889206024E-4
-1                        -0.6635414102482418      37.4031007751938         6.545897481534778E-45
-1                        -0.6635414102482373      37.01550387596899        6.545897481534512E-26
-1.0000000000000002       -1.0000000000000002      37.5968992248062         6.55244337901603E-25
-1                        -1                       37.984496124031          7.207033127176034E-25
-1                        1                        36.046511627906966       6.5458974815345E-25
-1                        1                        35.65891472868218        6.546552071371442E-61
-1                        0.6635414102482436       35.85271317829458        6.5458974815345E-25
-1                        0.6635414102482369       35.46511627906978        6.545897481534537E-28
-1                        0.32708282049647996      36.046511627906966       6.545897481534418E-19
-1                        0.3270828204964762       36.434108527131784       6.545897481534466E-23
-1                        0.009375769255286492     36.240310077519375       6.5465520712825715E-19
-1                        0.009375769255275612     35.85271317829458        6.545897481534418E-19
-1                        -0.3270828204964762      36.434108527131784       7.855084832918496E-32
-1                        -0.3270828204964777      36.82170542635659        7.93363560270466E-26
-1                        -0.6635414102482402      36.627906976744185       9.818846222301767E-26
-1                        -0.3270828204964762      36.434108527131784       3.927538488920558E-7
-1                        -0.3270828204964777      36.82170542635659        3.927538488920558E-7
-1                        -0.6635414102482402      36.627906976744185       3.927538488920558E-7
-1                        -0.6635414102482364      36.240310077519375       6.545897481534777E-44
-1                        -1                       36.82170542635659        9.818846222301767E-26
-1                        -1                       37.2093023255814         6.545897481535583E-47
-1                        1                        35.27131782945737        6.545897481534825E-40
-1.0000000000000002       1.0000000000000002       34.88372093023256        7.855076977920193E-40
-1                        0.6635414102482406       35.077519379844965       1.0702530238942589E-78
-1                        0.6635414102482355       34.689922480620154       9.818846223283939E-40
-1                        0.3270828204964771       35.27131782945737        6.545897481534537E-28
-1                        0.3270828204964802       35.65891472868218        6.545897481534537E-28
-1                        0.00937576925528516      35.46511627906978        6.545897481534821E-40
-1                        0.009375769255281607     35.077519379844965       7.855077056392099E-21
-1                        -0.3270828204964802      35.65891472868218        8.648518303373693E-54
-1                        -0.32708282049648        36.046511627906966       6.545897481541301E-43
-1                        -0.6635414102482436      35.85271317829458        6.545897481534777E-44
-1                        -0.6635414102482369      35.46511627906978        6.545897481534698E-31
-1                        -1                       36.046511627906966       8.640584675625897E-44
-1                        -1                       36.434108527131784       3.9275384889205325E-4
-1                        -0.6635414102482402      36.627906976744185       3.9275384889205325E-4
-1                        -1                       36.82170542635659        3.9275384889205325E-4
-1                        -1                       36.434108527131784       1.3091795093988024E-63
-0.9999999999999998       0.9999999999999998       34.496124031007746       7.855862485617977E-40
-1                        1                        34.10852713178296        7.273146691733242E-42
-1                        0.6635414102482441       34.30232558139535        9.818846222301695E-22
-1                        0.6635414102482441       34.30232558139535        3.9314660274095026E-10
-0.9999999999999998       0.9999999999999998       34.496124031007746       3.9314660274095026E-10
-1                        0.6635414102482355       34.689922480620154       3.9314660274095026E-10