% Model:              Cav_Hex_Unif_flux_v5.1.1 - Lin. Distn.mph
% Version:            COMSOL 5.5.0.359
% Date:               May 16 2022, 14:36
% Dimension:          3
% Nodes:              12896
% Expressions:        1
% Description:        Surface
% x                       y                        z                        Color
-1                        0.7341292700078723       49.73016380338987        0
-1                        1                        49.6124031007752         0
-1                        1                        50                       0
-1                        0.5999999999999999       50                       0
-1                        0.19999999999999948      50                       0
-1                        0.38111210693000125      49.63287709146556        0
-1                        0.6914798298975102       49.40570760710693        1.9834069369016268E-88
-1                        1                        49.2248062015504         8.726990522367373E-88
-1                        1                        48.83720930232559        1.009219707667768E-56
-1                        0.6635414102482411       49.03100775193799        1.26152463458471E-56
-1                        -0.022695248993348294    49.68716171430425        2.5230492691691885E-61
-1                        -0.20000000000000018     50                       2.5230492691691885E-61
-1                        0.09836177863380091      49.39526615978301        0
-1                        -0.39738041842737953     49.70397880746825        2.5230492691691885E-61
-1                        -0.6000000000000001      50                       0
-1                        -0.21895298358957163     49.39176608722758        0
-1                        -0.7190093876056589      49.743567143472          0
-1                        -1                       50                       0
-1                        -0.013424971416534206    49.05095160054088        1.0277339858982752E-101
-1                        0.3631594067170336       49.217228872550585       1.0277339858982752E-101
-1                        1                        48.44961240310078        4.801745712514554E-66
-1                        0.6635414102482369       48.64341085271319        1.26152463458471E-56
-1                        0.3270828204964782       48.83720930232559        1.3091795648201508E-94
-1                        1                        48.06201550387597        5.762094855017464E-66
-1                        0.6635414102482375       48.25581395348838        9.818846222294157E-42
-1                        -0.009375769255285993    48.643410852713195       0
-1                        -0.6236248903756987      49.401377899805674       5.8847843099505066E-92
-1                        -0.3387404875764728      48.81880760507406        4.767038942623248E-48
-1                        -0.3662068562419716      49.12636205546553        3.178025961748832E-48
-1                        -0.6645126092583694      49.00767976279964        3.5229828311252576E-42
-1                        -1                       49.6124031007752         0
-1                        -1                       49.2248062015504         3.8752790167406424E-42
-1                        1                        47.674418604651166       7.20048722968209E-44
-1                        0.66354141024824         47.868217054263575       1.3091794963058875E-41
-0.9999999999999998       0.9999999999999998       47.28682170542636        1.0800730844523136E-43
-1                        0.66354141024824         47.48062015503877        9.818846222293587E-45
-1                        0.3270828204964784       47.67441860465117        3.577534857722453E-57
-1                        0.32708282049647885      48.06201550387597        1.9637692444588314E-41
-1                        0.32708282049647464      48.44961240310079        0
-1                        0.009375769255285604     48.25581395348838        1.9637692444577736E-69
-1                        -0.3270828204964747      48.44961240310079        3.9275384889202856E-7
-1                        -0.009375769255285993    48.643410852713195       3.9275384889202856E-7
-1                        -0.3387404875764728      48.81880760507406        3.9275384889202856E-7
-1                        -0.3270828204964747      48.44961240310079        1.9637692444572048E-84
-1                        -0.32708282049647885     48.06201550387597        3.075974556414961E-57
-1                        0.00937576925528183      47.868217054263575       6.653509414137404E-57
-1                        -0.6635414102482369      48.64341085271319        3.577534860743268E-54
-1                        -0.3387404875764728      48.81880760507406        3.927538488920133E-9
-1                        -0.6635414102482369      48.64341085271319        3.927538488920133E-9
-1                        -0.3270828204964747      48.44961240310079        3.927538488920133E-9
-1                        -0.6635414102482375      48.25581395348838        1.9637692444572048E-84
-1                        -1                       48.44961240310078        3.5775348576977486E-54
-1                        -1                       48.83720930232559        3.229399180619825E-42
-1                        1                        46.511627906976756       1.95210599151434E-46
-1                        1                        46.89922480620155        8.002109229914696E-70
-1                        0.6635414102482429       46.70542635658915        3.549283620935101E-47
-1                        0.00937576925528183      47.48062015503877        2.8620278861779626E-57
-1                        0.32708282049647797      47.28682170542636        2.5440186659129814E-65
-1                        0.6635414102482375       47.09302325581397        0
-1                        0.3270828204964802       46.89922480620156        6.360046614962033E-65
-1                        0.00937576925528294      47.09302325581397        3.1800233074810165E-65
-1                        -0.32708282049647885     47.28682170542636        1.3091794963052578E-66
-1                        -0.66354141024824        47.868217054263575       1.9637692444576995E-71
-1                        -0.32708282049647774     47.67441860465117        3.075974557395864E-57
-1                        -0.6635414102482402      47.48062015503877        9.818846222293586E-45
-1                        -0.6635414102482373      47.09302325581397        2.3845013559354924E-41
-1                        -1                       47.674418604651166       1.6156734009641354E-84
-1                        -1                       48.06201550387597        0
-0.9999999999999998       0.9999999999999998       45.736434108527135       2.0303462418574835E-55
-1                        1                        46.12403100775194        0
-1                        0.66354141024824         45.93023255813954        4.060692483714967E-55
-1                        0.3270828204964764       46.51162790697676        0
-1                        0.6635414102482351       46.31782945736435        5.323925431402652E-47
-1                        0.009375769255279165     46.705426356589165       1.4405237137541165E-74
-1                        0.32708282049647597      46.12403100775194        1.3091794968875397E-29
-1                        0.009375769255290933     46.317829457364354       1.1343176902894993E-38
-1                        -0.32708282049648        46.89922480620156        4.767038942624003E-41
-1                        -0.32708282049647636     46.51162790697676        2.3123028589825928E-67
-1                        -0.6635414102482426      46.70542635658915        1.9068155770506105E-41
-1                        -1                       46.89922480620155        1.0092197076678439E-53
-0.9999999999999998       -0.9999999999999998      47.28682170542636        1.3258315218376007E-34
-1                        -1                       46.89922480620155        3.927538488920456E-4
-1                        -0.6635414102482373      47.09302325581397        3.927538488920456E-4
-0.9999999999999998       -0.9999999999999998      47.28682170542636        3.927538488920456E-4
-1                        1                        45.348837209302346       1.60111778473883E-97
-1                        0.6635414102482426       45.54263565891474        2.312281747270547E-48
-1                        1                        44.96124031007753        2.5440186465212413E-52
-1                        0.6635414102482375       45.15503875968994        3.1800234894266457E-58
-1                        0.3270828204964831       45.736434108527135       7.855076977837138E-30
-1                        0.3270828204964802       45.34883720930235        4.399244323243354E-48
-1                        0.00937576925527872      45.93023255813954        7.855076989180316E-30
-1                        0.009375769255273614     45.542635658914755       7.855076977838356E-22
-1                        -0.32708282049648396     45.736434108527135       7.933627747617033E-20
-1                        -0.3270828204964751      46.12403100775194        9.818846222294709E-39
-1                        -0.6635414102482349      46.31782945736435        7.85507697783819E-23
-1                        -0.66354141024824        45.93023255813954        1.310488675802748E-19
-1                        -1                       46.12403100775194        9.917034684521095E-21
-1                        -1                       46.511627906976756       5.1083672437280764E-83
-1                        0.66354141024824         44.76744186046513        9.470991218768459E-17
-1.0000000000000002       1.0000000000000002       44.573643410852725       8.90320288412299E-62
-1                        1                        44.18604651162791        9.818846222299069E-16
-1                        0.6635414102482335       44.37984496124031        1.262798829169128E-16
-1                        0.32708282049647264      44.57364341085273        6.31399414584564E-17
-1                        0.32708282049647797      44.96124031007754        1.7456815762538915E-48
-1                        0.009375769255284938     45.155038759689944       2.0869654652401808E-48
-1                        0.009375769255284494     44.76744186046514        9.818846222292882E-51
-1                        -0.3270828204964782      44.96124031007754        4.8702336518294E-64
-1                        -0.3270828204964802      45.34883720930235        6.545897481531966E-22
-1                        -0.6635414102482429      45.54263565891474        9.818846222298312E-20
-1                        -0.6635414102482375      45.15503875968994        4.8702336518294E-64
-1                        -1                       45.348837209302346       2.6087035178405957E-47
-0.9999999999999998       -0.9999999999999998      45.736434108527135       0
-1                        1                        43.7984496124031         9.818846222296799E-28
-1                        0.6635414102482411       43.992248062015506       6.493638375468118E-59
-1                        1                        43.41085271317829        9.818846222296799E-28
-1                        0.6635414102482369       43.6046511627907         9.81885109252558E-28
-1                        0.3270828204964782       43.798449612403104       3.896190880359721E-34
-1                        0.32708282049647464      44.18604651162791        3.0486993860938777E-52
-1                        0.009375769255293155     44.379844961240316       3.0455193627878057E-28
-1                        0.00937576925528294      43.992248062015506       2.4364154902302445E-28
-1                        -0.32708282049647264     44.57364341085273        0
-1                        -0.32708282049647464     44.18604651162791        4.0606924837170745E-28
-1                        -0.6635414102482402      44.76744186046513        1.3091794963064906E-17
-1                        -0.6635414102482333      44.37984496124031        1.963769244459736E-17
-1.0000000000000002       -1.0000000000000002      44.573643410852725       7.855076977838943E-18
-1                        -1                       44.96124031007753        9.81884622229264E-50
-1                        1                        43.02325581395349        4.499163164103881E-59
-1                        0.6635414102482411       43.2170542635659         1.9637692444595106E-23
-1                        1                        42.63565891472869        7.855076977836383E-35
-1                        0.663541410248242        42.82945736434109        7.855076977836409E-35
-1                        0.3270828204964824       43.02325581395349        7.855076977838042E-24
-1                        0.3270828204964773       43.41085271317829        1.6135864532534532E-15
-1                        0.009375769255284938     43.6046511627907         1.936303736127617E-15
-1                        0.3270828204964782       43.798449612403104       1.0593419872504147E-8
-1                        0.00937576925528294      43.992248062015506       1.0593419872504147E-8
-1                        0.009375769255284938     43.6046511627907         1.0593419872504147E-8
-1                        0.009375769255280275     43.2170542635659         3.5522243507810074E-15
-1                        -0.32708282049647797     43.798449612403104       9.818846222297173E-26
-1                        -0.32708282049647724     43.41085271317829        1.1318446808178626E-15
-1                        -0.6635414102482406      43.992248062015506       1.3091794963061886E-29
-1                        -0.6635414102482367      43.6046511627907         9.818846222306233E-30
-1                        -1                       43.7984496124031         6.545898322553912E-30
-1                        -1                       44.18604651162791        7.855076977836984E-31
-1                        1                        42.24806201550388        1.3321559954936155E-18
-1                        0.6635414102482375       42.441860465116285       8.842536873933227E-19
-0.9999999999999998       0.9999999999999998       41.86046511627906        4.620371522996024E-21
-1                        0.6635414102482335       42.05426356589147        8.881040128858735E-19
-1                        0.3270828204964713       42.24806201550388        1.1048603563066319E-25
-1                        0.32708282049647974      42.635658914728694       1.1048603563066319E-25
-1                        0.009375769255276944     42.8294573643411         2.544018646460035E-48
-1                        0.009375769255286936     42.4418604651163         1.104859601466066E-25
-1                        -0.32708282049648224     43.02325581395349        9.054757445757392E-16
-1                        0.009375769255276944     42.8294573643411         1.059341987250394E-10
-1                        0.009375769255280275     43.2170542635659         1.059341987250394E-10
-1                        -0.32708282049648224     43.02325581395349        1.059341987250394E-10
-1                        -0.32708282049648046     42.635658914728694       1.5890316500145261E-24
-1                        -0.6635414102482409      43.2170542635659         4.527378722879046E-11
-1                        -0.32708282049647724     43.41085271317829        4.527378722879046E-11
-1                        -0.6635414102482367      43.6046511627907         4.527378722879046E-11
-1                        -0.6635414102482409      43.2170542635659         9.818846222294963E-38
-1                        -0.6635414102482418      42.82945736434109        1.6326520946912404E-22
-1                        -1                       43.02325581395349        4.1623226428941714E-24
-1                        -1                       43.41085271317829        6.545897481530154E-42
-0.9999999999999998       0.9999999999999998       41.47286821705427        4.229433450721879E-31
-1                        0.6635414102482429       41.66666666666666        1.6294769994593731E-24
-0.9999999999999998       0.9999999999999998       41.08527131782947        7.548405659831348E-35
-1                        0.663541410248242        41.27906976744187        8.884831191148602E-29
-1                        0.32708282049648485      41.47286821705427        1.6136748720758433E-24
-1                        0.32708282049647486      41.86046511627906        2.4442148647740422E-24
-1                        0.00937576925529382      42.05426356589147        2.593986765564069E-29
-1                        0.00937576925527761      41.66666666666666        9.818846222296363E-31
-1                        0.32708282049647486      41.86046511627906        3.92753848892023E-7
-1                        0.00937576925529382      42.05426356589147        3.92753848892023E-7
-1                        0.00937576925527761      41.66666666666666        3.92753848892023E-7
-1                        -0.3270828204964751      41.86046511627906        1.8238509845668523E-29
-1                        -0.3270828204964704      42.24806201550388        1.9323591345618919E-29
-1                        -0.6635414102482373      42.441860465116285       1.9258839568504903E-22
-1                        -0.6635414102482333      42.05426356589147        4.831963335057418E-49
-1                        -0.6635414102482333      42.05426356589147        3.9275384889200015E-10
-1                        -0.6635414102482373      42.441860465116285       3.9275384889200015E-10
-1                        -1                       42.24806201550388        3.9275384889200015E-10
-1                        -1                       42.63565891472869        2.1198951486401516E-21
-1                        -1                       42.24806201550388        4.8702287816025746E-46
-1                        1                        40.69767441860465        2.1076693427294507E-27
-1                        0.663541410248236        40.89147286821706        5.078463908121299E-18
-1                        1                        40.310077519379846       2.774881771196976E-20
-1                        0.6635414102482402       40.50387596899225        5.106174222728835E-18
-1                        0.6635414102482369       40.11627906976744        2.7748817619542057E-20
-1                        0.3270828204964764       40.69767441860465        5.07846390645742E-18
-1                        0.3270828204964773       41.08527131782947        3.8503184450334645E-23
-1                        0.0093757692552765       41.279069767441875       2.5828338974790144E-31
-1                        0.009375769255288269     40.891472868217065       4.2293579666660086E-22
-1                        0.009375769255283828     40.503875968992254       6.545963637391104E-14
-1                        -0.3270828204964844      41.47286821705427        1.2162409781155172E-30
-1                        -0.3270828204964773      41.08527131782947        2.6712592660715917E-31
-1                        -0.6635414102482418      41.66666666666666        2.945253033574764E-31
-1                        -0.6635414102482418      41.27906976744187        1.269284646159234E-32
-0.9999999999999998       -0.9999999999999998      41.47286821705427        2.0751901979613648E-30
-0.9999999999999998       -0.9999999999999998      41.86046511627906        1.0092681992245279E-45
-1                        1                        39.922480620155035       1.0092197076682537E-31
-1                        1                        39.53488372093023        1.0800730844510867E-102
-1                        0.6635414102482411       39.72868217054263        5.3706665967395885E-24
-1                        0.6635414102482369       39.34108527131784        5.075229560784037E-29
-1                        0.3270828204964782       39.922480620155035       5.370615743522018E-24
-1                        0.32708282049647597      40.31007751937985        7.8550769778404E-21
-1                        0.009375769255286714     40.116279069767444       6.545963595097524E-14
-1                        0.009375769255281385     39.72868217054264        6.968833278199223E-17
-1                        -0.3270828204964759      40.31007751937985        6.546240428683971E-14
-1                        -0.32708282049647636     40.69767441860465        2.775304698127603E-18
-1                        -0.663541410248236       40.89147286821706        8.881040028147055E-26
-1                        -0.66354141024824        40.50387596899225        3.329858220888203E-18
-1                        -0.6635414102482369      40.11627906976744        5.3684861733497616E-21
-1                        -1                       40.69767441860465        1.6233132372496401E-22
-0.9999999999999998       -0.9999999999999998      41.08527131782947        2.0395353478472104E-42
-1                        1                        39.14728682170542        9.240068693230305E-30
-1                        1                        38.75968992248062        1.7746632756773524E-29
-1                        0.6635414102482411       38.95348837209302        2.120015538324577E-22
-1                        0.6635414102482402       38.565891472868216       7.569610290736441E-20
-1                        0.3270828204964773       39.14728682170542        3.0994085325550174E-33
-1                        0.3270828204964782       39.53488372093024        5.370666498917018E-24
-1                        0.3270828204964773       39.14728682170542        3.927538488920378E-5
-1                        0.6635414102482369       39.34108527131784        3.927538488920378E-5
-1                        0.3270828204964782       39.53488372093024        3.927538488920378E-5
-1                        0.009375769255284272     39.34108527131784        2.5828338974799686E-33
-1                        0.009375769255280943     38.95348837209303        2.1200155383225324E-20
-1                        -0.3270828204964782      39.53488372093024        6.968833568903285E-17
-1                        -0.3270828204964773      39.922480620155035       6.968833278200813E-17
-1                        -0.6635414102482411      39.72868217054263        5.368486522161123E-21
-1                        -0.6635414102482369      39.34108527131784        2.9070406125439493E-24
-1                        -1                       39.922480620155035       5.368486710198379E-21
-1                        -1                       40.310077519379846       4.4737384800242455E-28
-1                        1                        38.372093023255815       1.774641810469305E-29
-1                        1                        37.984496124031          2.1476809682671182E-38
-1                        0.663541410248236        38.178294573643406       7.548410133578553E-20
-1                        0.6635414102482411       37.7906976744186         4.110935943598889E-28
-1                        0.3270828204964764       38.372093023255815       7.548410133578553E-20
-1                        0.32708282049648085      38.759689922480625       2.120015538324205E-22
-1                        0.00937576925528183      38.56589147286822        2.1200155383225327E-20
-1                        0.009375769255289157     38.17829457364341        4.2374182188795714E-36
-1                        -0.3270828204964799      38.759689922480625       2.120015538367031E-20
-1                        -0.32708282049647813     39.14728682170542        2.9067503827103383E-24
-1                        -0.6635414102482409      38.95348837209302        6.313994150296637E-22
-1                        -0.6635414102482402      38.565891472868216       8.84272510188721E-21
-1                        -1                       39.14728682170542        6.31399443652003E-22
-1                        -1                       39.53488372093023        3.9275384889200036E-10
-1                        -0.6635414102482411      39.72868217054263        3.9275384889200036E-10
-1                        -1                       39.922480620155035       3.9275384889200036E-10
-1                        -1                       39.53488372093023        2.8903518977308745E-46
-1.0000000000000002       1.0000000000000002       37.5968992248062         2.4203796987561595E-35
-1                        1                        37.2093023255814         5.138669929498499E-29
-1                        0.6635414102482411       37.4031007751938         6.094114594969261E-22
-1                        0.6635414102482375       37.01550387596899        4.160516467102563E-31
-1                        0.3270828204964824       37.59689922480621        6.094114594976578E-22
-1                        0.32708282049647686      37.984496124031          2.846626211974049E-34
-1                        0.00937576925527761      37.790697674418595       2.9251789074451036E-34
-1                        0.009375769255278499     37.403100775193806       6.710607716687591E-18
-1                        -0.32708282049647647     38.372093023255815       8.842536857085281E-15
-1                        -0.32708282049647686     37.984496124031          8.842536857085068E-15
-1                        -0.663541410248236       38.178294573643406       8.842547380648539E-15
-1                        -0.6635414102482411      37.7906976744186         6.094110743581495E-25
-1                        -1                       38.372093023255815       2.2252987526062173E-19
-1                        -1                       38.75968992248062        6.332530774831271E-22
-1                        1                        36.82170542635659        7.548405659833967E-17
-1                        1                        36.434108527131784       2.8926594051648187E-15
-1                        0.6635414102482402       36.627906976744185       2.8503658250741633E-15
-1                        0.6635414102482364       36.240310077519375       3.3298616107710415E-15
-1                        0.32708282049647774      36.82170542635659        5.078490904629989E-16
-1                        0.3270828204964782       37.2093023255814         5.123233325539726E-16
-1                        0.009375769255284716     37.015503875969          5.123228247768912E-16
-1                        0.009375769255283162     36.62790697674419        6.344036950002407E-24
-1                        -0.3270828204964827      37.59689922480621        9.818846222299432E-15
-1                        0.009375769255278499     37.403100775193806       5.305522113984769E-6
-1                        0.00937576925527761      37.790697674418595       5.305522113984769E-6
-1                        -0.3270828204964827      37.59689922480621        5.305522113984769E-6
-1                        -0.3270828204964784      37.2093023255814         7.855076978183192E-15
-1                        -0.3270828204964784      37.2093023255814         3.9275384889205276E-4
-1                        0.009375769255278499     37.403100775193806       3.9275384889205276E-4
-1                        -0.3270828204964827      37.59689922480621        3.9275384889205276E-4
-1                        -0.6635414102482418      37.4031007751938         6.545899830455355E-15
-1                        -0.6635414102482373      37.01550387596899        2.372409415138942E-21
-1.0000000000000002       -1.0000000000000002      37.5968992248062         9.818846222299441E-14
-1                        -1                       37.984496124031          2.529156571531878E-21
-1.0000000000000002       -1.0000000000000002      37.5968992248062         1.2720093229937512E-9
-1                        -0.6635414102482411      37.7906976744186         1.2720093229937512E-9
-1                        -1                       37.984496124031          1.2720093229937512E-9
-1                        1                        36.046511627906966       5.087885555962411E-25
-1                        1                        35.65891472868218        3.485919702542349E-17
-1                        0.6635414102482436       35.85271317829458        3.3302761820608763E-13
-1                        0.6635414102482369       35.46511627906978        3.483897961419713E-17
-1                        0.32708282049647996      36.046511627906966       2.775331402743185E-13
-1                        0.3270828204964762       36.434108527131784       3.4931751546213645E-21
-1                        0.009375769255286492     36.240310077519375       5.341921730478719E-19
-1                        0.3270828204964762       36.434108527131784       3.0470569860671506E-11
-1                        0.009375769255283162     36.62790697674419        3.0470569860671506E-11
-1                        0.009375769255286492     36.240310077519375       3.0470569860671506E-11
-1                        0.009375769255275612     35.85271317829458        4.4961174564863806E-17
-1                        -0.3270828204964762      36.434108527131784       4.1109359435998234E-16
-1                        -0.3270828204964777      36.82170542635659        7.85507955366284E-26
-1                        -0.3270828204964762      36.434108527131784       5.983006460720807E-4
-1                        0.009375769255283162     36.62790697674419        5.983006460720807E-4
-1                        -0.3270828204964777      36.82170542635659        5.983006460720807E-4
-1                        -0.6635414102482402      36.627906976744185       4.1109359435998234E-16
-1                        -0.6635414102482364      36.240310077519375       5.138669929534437E-16
-1                        -1                       36.82170542635659        2.8184417841047666E-23
-1                        -1                       37.2093023255814         2.8466262013672977E-21
-1                        1                        35.27131782945737        4.239486411937735E-20