% Model:              Cav_Hex_Unif_flux_v5.1.1 - Lin. Distn.mph
% Version:            COMSOL 5.5.0.359
% Date:               May 16 2022, 14:36
% Dimension:          3
% Nodes:              16974
% Expressions:        1
% Description:        Surface
% x                       y                        z                        Color
-1                        0.7341292700078723       49.73016380338987        0
-1                        1                        49.6124031007752         0
-1                        1                        50                       0
-1                        0.5999999999999999       50                       0
-1                        0.19999999999999948      50                       0
-1                        0.38111210693000125      49.63287709146556        0
-1                        0.6914798298975102       49.40570760710693        1.920955644898078E-15
-1                        1                        49.2248062015504         8.656050498605339E-15
-1                        1                        48.83720930232559        3.5008790870223523E-16
-1                        0.6635414102482411       49.03100775193799        1.28063836455624E-15
-1                        -0.022695248993348294    49.68716171430425        6.998946627100883E-16
-1                        -0.20000000000000018     50                       6.998946627100883E-16
-1                        0.09836177863380091      49.39526615978301        0
-1                        -0.39738041842737953     49.70397880746825        6.998946627100883E-16
-1                        -0.6000000000000001      50                       0
-1                        -0.21895298358957163     49.39176608722758        0
-1                        -0.7190093876056589      49.743567143472          0
-1                        -1                       50                       0
-1                        -0.013424971416534206    49.05095160054088        5.096141526346343E-14
-1                        0.3631594067170336       49.217228872550585       5.096141526346343E-14
-1                        1                        48.44961240310078        1.5686381835357682E-19
-1                        0.6635414102482369       48.64341085271319        1.267957521542152E-21
-1                        0.6635414102482369       48.64341085271319        1.3997903446483602E-10
-1                        1                        48.83720930232559        1.3997903446483602E-10
-1                        0.6635414102482411       49.03100775193799        1.3997903446483602E-10
-1                        0.3270828204964782       48.83720930232559        3.397427811026648E-14
-1                        1                        48.06201550387597        1.3267641090514342E-20
-1                        0.6635414102482375       48.25581395348838        2.6926326877698644E-13
-1                        -0.009375769255285993    48.643410852713195       0
-1                        -0.6236248903756987      49.401377899805674       1.1516660363808268E-16
-1                        -0.3387404875764728      48.81880760507406        4.275504812402705E-16
-1                        -0.3662068562419716      49.12636205546553        3.6181138991890214E-16
-1                        -0.6645126092583694      49.00767976279964        2.7668488234367163E-16
-1                        -1                       49.6124031007752         0
-1                        -1                       49.2248062015504         2.355824985896962E-13
-1                        1                        47.674418604651166       1.3388256009519242E-21
-1                        0.66354141024824         47.868217054263575       3.5901767578147933E-13
-0.9999999999999998       0.9999999999999998       47.28682170542636        1.0558527282756709E-10
-1                        1                        47.674418604651166       1.0558527282756709E-10
-1                        0.66354141024824         47.48062015503877        1.0558527282756709E-10
-1                        0.66354141024824         47.48062015503877        2.469659069752473E-20
-1                        0.3270828204964784       47.67441860465117        3.0844196673699856E-17
-1                        0.32708282049647885      48.06201550387597        5.385265134309891E-13
-1                        0.32708282049647464      48.44961240310079        0
-1                        0.009375769255285604     48.25581395348838        1.541938842441183E-30
-1                        -0.3270828204964747      48.44961240310079        3.927538488920832E-7
-1                        -0.009375769255285993    48.643410852713195       3.927538488920832E-7
-1                        -0.3387404875764728      48.81880760507406        3.927538488920832E-7
-1                        -0.3270828204964747      48.44961240310079        0
-1                        -0.32708282049647885     48.06201550387597        1.541938842441183E-30
-1                        0.00937576925528183      47.868217054263575       1.541938842441183E-30
-1                        -0.6635414102482369      48.64341085271319        1.0406680612736715E-13
-1                        -0.3387404875764728      48.81880760507406        3.92753848892096E-9
-1                        -0.6635414102482369      48.64341085271319        3.92753848892096E-9
-1                        -0.3270828204964747      48.44961240310079        3.92753848892096E-9
-1                        -0.6635414102482375      48.25581395348838        3.8038725641543505E-11
-1                        -0.3270828204964747      48.44961240310079        3.8038725641543505E-11
-1                        -0.6635414102482369      48.64341085271319        3.8038725641543505E-11
-1                        -0.6635414102482375      48.25581395348838        0
-1                        -1                       48.44961240310078        7.804477825562086E-14
-1                        -1                       48.83720930232559        9.423299563200436E-12
-1                        -0.6645126092583694      49.00767976279964        9.423299563200436E-12
-1                        -1                       49.2248062015504         9.423299563200436E-12
-1                        -1                       48.83720930232559        2.520925246335283E-13
-1                        1                        46.511627906976756       2.0738820844814527E-13
-1                        1                        46.89922480620155        2.0738820844814527E-13
-1                        0.6635414102482429       46.70542635658915        3.110823126722179E-13
-1                        0.3270828204964784       47.67441860465117        9.245955462816227E-12
-1                        0.00937576925528183      47.868217054263575       9.245955462816227E-12
-1                        0.00937576925528183      47.48062015503877        9.245955462816227E-12
-1                        0.32708282049647797      47.28682170542636        5.771953647998777E-15
-1                        0.00937576925528183      47.48062015503877        5.771935406030752E-15
-0.9999999999999998       0.9999999999999998       47.28682170542636        0
-1                        0.6635414102482375       47.09302325581397        0
-1                        0.3270828204964802       46.89922480620156        0
-1                        0.00937576925528294      47.09302325581397        7.0582709238015766E-12
-1                        0.3270828204964802       46.89922480620156        7.0582709238015766E-12
-1                        0.32708282049647797      47.28682170542636        7.0582709238015766E-12
-1                        0.00937576925528294      47.09302325581397        7.665094213804776E-15
-1                        -0.32708282049647885     47.28682170542636        2.1314780087936097E-22
-1                        -0.66354141024824        47.868217054263575       0
-1                        -0.32708282049647774     47.67441860465117        1.0192283052692165E-11
-1                        -0.32708282049647885     48.06201550387597        1.0192283052692165E-11
-1                        -0.66354141024824        47.868217054263575       1.0192283052692165E-11
-1                        -0.32708282049647774     47.67441860465117        2.151841321415781E-11
-1                        0.00937576925528183      47.868217054263575       2.151841321415781E-11
-1                        -0.32708282049647885     48.06201550387597        2.151841321415781E-11
-1                        -0.32708282049647774     47.67441860465117        1.541938842441106E-27
-1                        -0.6635414102482402      47.48062015503877        2.530325382617631E-15
-1                        -0.6635414102482373      47.09302325581397        5.385265134310157E-16
-1                        -1                       47.674418604651166       2.5097789597504633E-14
-1                        -1                       48.06201550387597        0
-0.9999999999999998       0.9999999999999998       45.736434108527135       9.414443564831105E-19
-1                        1                        46.12403100775194        0
-1                        0.66354141024824         45.93023255813954        1.2649224967883171E-26
-1                        0.3270828204964764       46.51162790697676        0
-1                        0.6635414102482351       46.31782945736435        0
-1                        0.6635414102482351       46.31782945736435        1.072420283389364E-7
-1                        1                        46.511627906976756       1.072420283389364E-7
-1                        0.6635414102482429       46.70542635658915        1.072420283389364E-7
-1                        0.009375769255279165     46.705426356589165       3.080022897744932E-17
-1                        0.32708282049647597      46.12403100775194        0
-1                        0.009375769255290933     46.317829457364354       2.073882084481588E-17
-1                        -0.32708282049648        46.89922480620156        0
-1                        -0.32708282049647636     46.51162790697676        2.073882084481588E-17
-1                        -0.6635414102482426      46.70542635658915        8.551009624804622E-9
-1                        -0.32708282049648        46.89922480620156        8.551009624804622E-9
-1                        -0.6635414102482373      47.09302325581397        8.551009624804622E-9
-1                        -0.6635414102482426      46.70542635658915        0
-1                        -0.6635414102482426      46.70542635658915        1.3997893254200098E-7
-1                        -0.6635414102482373      47.09302325581397        1.3997893254200098E-7
-1                        -1                       46.89922480620155        1.3997893254200098E-7
-0.9999999999999998       -0.9999999999999998      47.28682170542636        2.5367052854220143E-14
-1                        -1                       46.89922480620155        3.927538488920581E-4
-1                        -0.6635414102482373      47.09302325581397        3.927538488920581E-4
-0.9999999999999998       -0.9999999999999998      47.28682170542636        3.927538488920581E-4
-1                        1                        45.348837209302346       7.531765260431785E-19
-1                        0.6635414102482426       45.54263565891474        1.0639353697774466E-18
-1                        0.6635414102482426       45.54263565891474        1.4756299275042465E-9
-0.9999999999999998       0.9999999999999998       45.736434108527135       1.4756299275042465E-9
-1                        0.66354141024824         45.93023255813954        1.4756299275042465E-9
-1                        1                        44.96124031007753        0
-1                        0.6635414102482375       45.15503875968994        0
-1                        0.3270828204964831       45.736434108527135       1.2649224967883171E-26
-1                        0.3270828204964802       45.34883720930235        0
-1                        0.3270828204964802       45.34883720930235        2.028192337156198E-6
-1                        0.6635414102482426       45.54263565891474        2.028192337156198E-6
-1                        0.3270828204964831       45.736434108527135       2.028192337156198E-6
-1                        0.32708282049647597      46.12403100775194        9.329999567524543E-9
-1                        0.009375769255290933     46.317829457364354       9.329999567524543E-9
-1                        0.00937576925527872      45.93023255813954        9.329999567524543E-9
-1                        0.00937576925527872      45.93023255813954        3.802565455066614E-11
-1                        0.3270828204964831       45.736434108527135       3.802565455066614E-11
-1                        0.32708282049647597      46.12403100775194        3.802565455066614E-11
-1                        0.009375769255273614     45.542635658914755       9.482046908988135E-9
-1                        0.3270828204964802       45.34883720930235        9.482046908988135E-9
-1                        0.3270828204964831       45.736434108527135       9.482046908988135E-9
-1                        0.00937576925527872      45.93023255813954        0
-1                        0.009375769255273614     45.542635658914755       0
-1                        0.009375769255273614     45.542635658914755       9.435440693389688E-8
-1                        0.00937576925527872      45.93023255813954        9.435440693389688E-8
-1                        -0.32708282049648396     45.736434108527135       9.435440693389688E-8
-1                        -0.3270828204964751      46.12403100775194        3.0800228977450303E-19
-1                        -0.32708282049648396     45.736434108527135       0
-1                        0.00937576925527872      45.93023255813954        8.141648167015267E-7
-1                        0.009375769255290933     46.317829457364354       8.141648167015267E-7
-1                        -0.3270828204964751      46.12403100775194        8.141648167015267E-7
-1                        -0.6635414102482349      46.31782945736435        1.0087033305435238E-11
-1                        -0.32708282049647636     46.51162790697676        1.0087033305435238E-11
-1                        -0.6635414102482426      46.70542635658915        1.0087033305435238E-11
-1                        -0.3270828204964751      46.12403100775194        3.2554289026676474E-9
-1                        -0.32708282049647636     46.51162790697676        3.2554289026676474E-9
-1                        -0.6635414102482349      46.31782945736435        3.2554289026676474E-9
-1                        -0.66354141024824        45.93023255813954        0
-1                        -0.6635414102482349      46.31782945736435        0
-1                        -0.66354141024824        45.93023255813954        3.8025654550661713E-4
-1                        -0.6635414102482349      46.31782945736435        3.8025654550661713E-4
-1                        -1                       46.12403100775194        3.8025654550661713E-4
-1                        -1                       46.511627906976756       8.516771111841959E-13
-1                        -1                       46.89922480620155        8.909336660240365E-13
-1                        -1                       46.12403100775194        0
-1                        -0.6635414102482349      46.31782945736435        2.946330807840373E-8
-1                        -0.6635414102482426      46.70542635658915        2.946330807840373E-8
-1                        -1                       46.511627906976756       2.946330807840373E-8
-1                        0.66354141024824         44.76744186046513        1.8692695024229064E-11
-1                        1                        44.96124031007753        1.8692695024229064E-11
-1                        0.6635414102482375       45.15503875968994        1.8692695024229064E-11
-1.0000000000000002       1.0000000000000002       44.573643410852725       0
-1                        0.66354141024824         44.76744186046513        0
-1                        1                        44.18604651162791        0
-1                        0.6635414102482335       44.37984496124031        0
-1                        0.6635414102482335       44.37984496124031        1.2217006881983316E-8
-1                        0.66354141024824         44.76744186046513        1.2217006881983316E-8
-1                        0.32708282049647264      44.57364341085273        1.2217006881983316E-8
-1                        0.66354141024824         44.76744186046513        1.8165989732599947E-7
-1                        0.6635414102482375       45.15503875968994        1.8165989732599947E-7
-1                        0.32708282049647797      44.96124031007754        1.8165989732599947E-7
-1                        0.32708282049647264      44.57364341085273        2.9421003973713807E-22
-1                        0.32708282049647797      44.96124031007754        5.385265134310761E-22
-1                        0.32708282049647797      44.96124031007754        4.333250961059675E-9
-1                        0.6635414102482375       45.15503875968994        4.333250961059675E-9
-1                        0.3270828204964802       45.34883720930235        4.333250961059675E-9
-1                        0.009375769255284938     45.155038759689944       9.76048740860789E-9
-1                        0.32708282049647797      44.96124031007754        9.76048740860789E-9
-1                        0.3270828204964802       45.34883720930235        9.76048740860789E-9
-1                        0.009375769255284938     45.155038759689944       1.657725127853232E-24
-1                        0.009375769255284494     44.76744186046514        3.922800510426256E-22
-1                        0.32708282049647797      44.96124031007754        1.1524810697094784E-9
-1                        0.009375769255284938     45.155038759689944       1.1524810697094784E-9
-1                        0.009375769255284494     44.76744186046514        1.1524810697094784E-9
-1                        -0.3270828204964782      44.96124031007754        1.657725127853232E-24
-1                        -0.3270828204964802      45.34883720930235        8.610147630269163E-6
-1                        0.009375769255273614     45.542635658914755       8.610147630269163E-6
-1                        -0.32708282049648396     45.736434108527135       8.610147630269163E-6
-1                        0.009375769255284938     45.155038759689944       6.282350217719777E-7
-1                        0.009375769255273614     45.542635658914755       6.282350217719777E-7
-1                        -0.3270828204964802      45.34883720930235        6.282350217719777E-7
-1                        -0.3270828204964802      45.34883720930235        3.315450255706464E-24
-1                        -0.6635414102482429      45.54263565891474        6.737249285541177E-4
-1                        -0.32708282049648396     45.736434108527135       6.737249285541177E-4
-1                        -0.66354141024824        45.93023255813954        6.737249285541177E-4
-1                        -0.3270828204964802      45.34883720930235        4.316835063318092E-8
-1                        -0.32708282049648396     45.736434108527135       4.316835063318092E-8
-1                        -0.6635414102482429      45.54263565891474        4.316835063318092E-8
-1                        -0.6635414102482375      45.15503875968994        2.1088164736188617E-11
-1                        -0.3270828204964802      45.34883720930235        2.1088164736188617E-11
-1                        -0.6635414102482429      45.54263565891474        2.1088164736188617E-11
-1                        -0.3270828204964782      44.96124031007754        4.344612582094244E-9
-1                        -0.3270828204964802      45.34883720930235        4.344612582094244E-9
-1                        -0.6635414102482375      45.15503875968994        4.344612582094244E-9
-1                        -0.6635414102482375      45.15503875968994        0
-1                        -0.6635414102482429      45.54263565891474        0
-1                        -1                       45.348837209302346       1.0487228929770267E-19
-0.9999999999999998       -0.9999999999999998      45.736434108527135       0
-1                        1                        43.7984496124031         6.84449532832114E-9
-1                        1                        44.18604651162791        6.84449532832114E-9
-1                        0.6635414102482411       43.992248062015506       6.84449532832114E-9
-1                        0.6635414102482411       43.992248062015506       6.637541114963192E-35
-1                        1                        43.41085271317829        2.882718382949017E-7
-1                        1                        43.7984496124031         2.882718382949017E-7
-1                        0.6635414102482369       43.6046511627907         2.882718382949017E-7
-1                        0.6635414102482369       43.6046511627907         6.637541114963192E-35
-1                        1                        43.7984496124031         0
-1                        0.3270828204964782       43.798449612403104       6.637541114963192E-35
-1                        0.32708282049647464      44.18604651162791        2.910337684911667E-30
-1                        0.32708282049647464      44.18604651162791        4.422284480737265E-10
-1                        0.6635414102482335       44.37984496124031        4.422284480737265E-10
-1                        0.32708282049647264      44.57364341085273        4.422284480737265E-10
-1                        0.009375769255293155     44.379844961240316       3.3262377362133315E-23
-1                        0.00937576925528294      43.992248062015506       3.0993163149002315E-9
-1                        0.3270828204964782       43.798449612403104       3.0993163149002315E-9
-1                        0.32708282049647464      44.18604651162791        3.0993163149002315E-9
-1                        0.00937576925528294      43.992248062015506       1.9036282005444436E-23
-1                        -0.32708282049647264     44.57364341085273        0
-1                        -0.32708282049647464     44.18604651162791        0
-1                        0.00937576925528294      43.992248062015506       2.1444196139055413E-8
-1                        0.009375769255293155     44.379844961240316       2.1444196139055413E-8
-1                        -0.32708282049647464     44.18604651162791        2.1444196139055413E-8
-1                        -0.6635414102482402      44.76744186046513        4.041606046420319E-9
-1                        -0.3270828204964782      44.96124031007754        4.041606046420319E-9
-1                        -0.6635414102482375      45.15503875968994        4.041606046420319E-9
-1                        -0.6635414102482402      44.76744186046513        0
-1                        -0.6635414102482333      44.37984496124031        0
-1                        -0.6635414102482333      44.37984496124031        9.983275874433925E-5
-1                        -0.6635414102482402      44.76744186046513        9.983275874433925E-5
-1.0000000000000002       -1.0000000000000002      44.573643410852725       9.983275874433925E-5
-1                        -1                       44.96124031007753        1.0527119782617012E-19
-1.0000000000000002       -1.0000000000000002      44.573643410852725       3.989085284674574E-22
-1                        1                        43.02325581395349        0
-1                        1                        43.41085271317829        0
-1                        0.6635414102482411       43.2170542635659         0
-1                        1                        42.63565891472869        3.223845386409218E-10
-1                        1                        43.02325581395349        3.223845386409218E-10
-1                        0.663541410248242        42.82945736434109        3.223845386409218E-10
-1                        0.663541410248242        42.82945736434109        0
-1                        0.3270828204964824       43.02325581395349        1.2866508165644105E-14
-1                        0.3270828204964773       43.41085271317829        1.2866508165644105E-14
-1                        0.3270828204964824       43.02325581395349        4.3937180047996186E-7
-1                        0.6635414102482411       43.2170542635659         4.3937180047996186E-7
-1                        0.3270828204964773       43.41085271317829        4.3937180047996186E-7
-1                        0.3270828204964773       43.41085271317829        9.938238489896181E-8
-1                        0.6635414102482369       43.6046511627907         9.938238489896181E-8
-1                        0.3270828204964782       43.798449612403104       9.938238489896181E-8
-1                        0.009375769255284938     43.6046511627907         9.838084084942257E-6
-1                        0.3270828204964773       43.41085271317829        9.838084084942257E-6
-1                        0.3270828204964782       43.798449612403104       9.838084084942257E-6
-1                        0.3270828204964782       43.798449612403104       9.748865401145722E-8
-1                        0.00937576925528294      43.992248062015506       9.748865401145722E-8
-1                        0.009375769255284938     43.6046511627907         9.748865401145722E-8
-1                        0.009375769255280275     43.2170542635659         1.2866508165644105E-14
-1                        0.3270828204964773       43.41085271317829        4.203950789266589E-7
-1                        0.009375769255284938     43.6046511627907         4.203950789266589E-7
-1                        0.009375769255280275     43.2170542635659         4.203950789266589E-7
-1                        -0.32708282049647797     43.798449612403104       3.8088236492843447E-6
-1                        0.00937576925528294      43.992248062015506       3.8088236492843447E-6
-1                        -0.32708282049647464     44.18604651162791        3.8088236492843447E-6
-1                        0.009375769255284938     43.6046511627907         1.9036282005444436E-23
-1                        -0.32708282049647797     43.798449612403104       1.9036282005444436E-23
-1                        -0.32708282049647724     43.41085271317829        3.558911583887686E-7
-1                        0.009375769255284938     43.6046511627907         3.558911583887686E-7
-1                        -0.32708282049647797     43.798449612403104       3.558911583887686E-7
-1                        -0.32708282049647724     43.41085271317829        9.119993792121769E-14
-1                        -0.6635414102482406      43.992248062015506       0
-1                        -0.6635414102482367      43.6046511627907         0
-1                        -0.6635414102482367      43.6046511627907         2.820902342585111E-5
-1                        -0.6635414102482406      43.992248062015506       2.820902342585111E-5
-1                        -1                       43.7984496124031         2.820902342585111E-5
-1                        -1                       44.18604651162791        0
-1                        -1                       43.7984496124031         1.0273220300963542E-9
-1                        -0.6635414102482406      43.992248062015506       1.0273220300963542E-9
-1                        -1                       44.18604651162791        1.0273220300963542E-9
-1                        1                        42.24806201550388        0
-1                        1                        42.63565891472869        0
-1                        0.6635414102482375       42.441860465116285       0
-1                        0.6635414102482375       42.441860465116285       1.3787952661375165E-7
-1                        1                        42.63565891472869        1.3787952661375165E-7
-1                        0.663541410248242        42.82945736434109        1.3787952661375165E-7
-0.9999999999999998       0.9999999999999998       41.86046511627906        9.721934740711281E-7
-1                        1                        42.24806201550388        9.721934740711281E-7
-1                        0.6635414102482335       42.05426356589147        9.721934740711281E-7
-1                        0.6635414102482335       42.05426356589147        1.3685549393214033E-5
-1                        1                        42.24806201550388        1.3685549393214033E-5
-1                        0.6635414102482375       42.441860465116285       1.3685549393214033E-5
-1                        0.6635414102482335       42.05426356589147        3.6374454417782903E-9
-1                        0.6635414102482375       42.441860465116285       3.6374454417782903E-9
-1                        0.3270828204964713       42.24806201550388        3.6374454417782903E-9
-1                        0.6635414102482375       42.441860465116285       4.63064037205424E-7
-1                        0.663541410248242        42.82945736434109        4.63064037205424E-7
-1                        0.32708282049647974      42.635658914728694       4.63064037205424E-7
-1                        0.3270828204964713       42.24806201550388        3.750818701363916E-7
-1                        0.6635414102482375       42.441860465116285       3.750818701363916E-7
-1                        0.32708282049647974      42.635658914728694       3.750818701363916E-7
-1                        0.32708282049647974      42.635658914728694       3.3889634915745343E-6
-1                        0.663541410248242        42.82945736434109        3.3889634915745343E-6
-1                        0.3270828204964824       43.02325581395349        3.3889634915745343E-6