% Model:              Cav_Hex_Unif_flux_v5.1.1 - Lin. Distn.mph
% Version:            COMSOL 5.5.0.359
% Date:               May 16 2022, 14:37
% Dimension:          3
% Nodes:              20931
% Expressions:        1
% Description:        Surface
% x                       y                        z                        Color
-8                        5.714285714285713        0                        0.04832119890051859
-8                        8                        0                        0.04832119890051859
-8                        6.399613512553145        1.709006963007598        0.04832119890051859
-8                        6.399613512553145        1.709006963007598        0.05335063796542233
-8                        4.482995757972045        1.9744690261730424       0.05335063796542233
-8                        5.714285714285713        0                        0.05335063796542233
-7.999999999999998        3.4285714285714284       0                        0.05749671236374787
-8                        5.714285714285713        0                        0.05749671236374787
-8                        4.482995757972045        1.9744690261730424       0.05749671236374787
-8                        4.482995757972045        1.9744690261730424       0.05697735090834686
-8                        2.2857142857142847       2.1395157600494485       0.05697735090834686
-7.999999999999998        3.4285714285714284       0                        0.05697735090834686
-8                        6.399613512553145        1.709006963007598        0.05448658709745696
-8                        8                        0                        0.05448658709745696
-8                        8                        2.5641025641025665       0.05448658709745696
-8                        -5.714285714285714       0                        0.06206282443395007
-8                        -5.754801530403203       1.8820578931072252       0.06206282443395007
-8                        -8                       0                        0.06206282443395007
-8                        -8                       2.5641025641025665       0.07805414089536669
-8                        -8                       0                        0.07805414089536669
-8                        -5.754801530403203       1.8820578931072252       0.07805414089536669
-8                        -5.714285714285714       0                        0.05310471500113498
-7.999999999999998        -3.428571428571428       0                        0.05310471500113498
-8                        -5.754801530403203       1.8820578931072252       0.05310471500113498
-8                        -3.9609101705761747      2.524278643727529        0.06749226773491229
-8                        -5.754801530403203       1.8820578931072252       0.06749226773491229
-7.999999999999998        -3.428571428571428       0                        0.06749226773491229
-7.999999999999998        1.142857142857142        0                        0.060771399132716494
-7.999999999999998        3.4285714285714284       0                        0.060771399132716494
-8                        2.2857142857142847       2.1395157600494485       0.060771399132716494
-8.000000000000002        -1.1428571428571426      0                        0.0610345117017702
-8                        -2.1043988840981296      2.225593583014818        0.0610345117017702
-7.999999999999998        -3.428571428571428       0                        0.0610345117017702
-8                        -3.9609101705761747      2.524278643727529        0.05829367039524464
-7.999999999999998        -3.428571428571428       0                        0.05829367039524464
-8                        -2.1043988840981296      2.225593583014818        0.05829367039524464
-8.000000000000002        -1.1428571428571426      0                        0.060330131871695995
-7.999999999999998        1.142857142857142        0                        0.060330131871695995
-8                        0                        2.1395157600494485       0.060330131871695995
-8                        -2.1043988840981296      2.225593583014818        0.06690613898546117
-8.000000000000002        -1.1428571428571426      0                        0.06690613898546117
-8                        0                        2.1395157600494485       0.06690613898546117
-8                        0                        2.1395157600494485       0.059755046679281255
-7.999999999999998        1.142857142857142        0                        0.059755046679281255
-8                        2.2857142857142847       2.1395157600494485       0.059755046679281255
-7.999999999999998        7.999999999999998        5.128205128205133        0.08600677776089904
-8                        5.8007860869900565       4.006463218196776        0.08600677776089904
-8                        8                        2.5641025641025665       0.08600677776089904
-8                        6.399613512553145        1.709006963007598        0.05541630783743793
-8                        8                        2.5641025641025665       0.05541630783743793
-8                        5.8007860869900565       4.006463218196776        0.05541630783743793
-8                        6.399613512553145        1.709006963007598        0.05887409656965839
-8                        5.8007860869900565       4.006463218196776        0.05887409656965839
-8                        4.482995757972045        1.9744690261730424       0.05887409656965839
-8                        1.0269477883073517       4.034277380187001        0.06293253506753449
-8                        0                        2.1395157600494485       0.06293253506753449
-8                        2.2857142857142847       2.1395157600494485       0.06293253506753449
-8                        2.2857142857142847       2.1395157600494485       0.060489748779278193
-8                        4.482995757972045        1.9744690261730424       0.060489748779278193
-8                        3.268663356429825        4.160269695150487        0.060489748779278193
-8                        3.268663356429825        4.160269695150487        0.06717317180849632
-8                        1.0269477883073517       4.034277380187001        0.06717317180849632
-8                        2.2857142857142847       2.1395157600494485       0.06717317180849632
-8                        4.482995757972045        1.9744690261730424       0.07461652816391842
-8                        5.8007860869900565       4.006463218196776        0.07461652816391842
-8                        3.268663356429825        4.160269695150487        0.07461652816391842
-7.999999999999998        -7.999999999999998       5.128205128205133        0.10398667808217985
-8                        -8                       2.5641025641025665       0.10398667808217985
-8                        -5.4484138510570155      4.107507802736166        0.10398667808217985
-8                        -5.754801530403203       1.8820578931072252       0.08010381657046173
-8                        -5.4484138510570155      4.107507802736166        0.08010381657046173
-8                        -8                       2.5641025641025665       0.08010381657046173
-8                        -3.9609101705761747      2.524278643727529        0.05215586470888523
-8                        -5.4484138510570155      4.107507802736166        0.05215586470888523
-8                        -5.754801530403203       1.8820578931072252       0.05215586470888523
-8                        -3.9609101705761747      2.524278643727529        0.04200469689911501
-8                        -2.1043988840981296      2.225593583014818        0.04200469689911501
-8                        -3.041207673239231       3.888516329869307        0.04200469689911501
-8                        -3.9609101705761747      2.524278643727529        0.05486485635108349
-8                        -3.041207673239231       3.888516329869307        0.05486485635108349
-8                        -5.4484138510570155      4.107507802736166        0.05486485635108349
-8                        -5.4484138510570155      4.107507802736166        0.09984535224405815
-8                        -5.746647837406634       6.703549938355801        0.09984535224405815
-7.999999999999998        -7.999999999999998       5.128205128205133        0.09984535224405815
-8                        -3.6408576312798684      5.745116325733803        0.09146743568572455
-8                        -5.746647837406634       6.703549938355801        0.09146743568572455
-8                        -5.4484138510570155      4.107507802736166        0.09146743568572455
-8                        -3.041207673239231       3.888516329869307        0.06726885246190142
-8                        -3.6408576312798684      5.745116325733803        0.06726885246190142
-8                        -5.4484138510570155      4.107507802736166        0.06726885246190142
-8                        -8                       7.692307692307701        0.09248983947686643
-7.999999999999998        -7.999999999999998       5.128205128205133        0.09248983947686643
-8                        -5.746647837406634       6.703549938355801        0.09248983947686643
-8                        4.191857806960444        5.720834870997327        0.06620761048474089
-8                        3.268663356429825        4.160269695150487        0.06620761048474089
-8                        5.8007860869900565       4.006463218196776        0.06620761048474089
-7.999999999999998        7.999999999999998        5.128205128205133        0.0966615494374669
-8                        5.94189573375385         6.553042846969359        0.0966615494374669
-8                        5.8007860869900565       4.006463218196776        0.0966615494374669
-8                        4.191857806960444        5.720834870997327        0.07205174407595384
-8                        5.8007860869900565       4.006463218196776        0.07205174407595384
-8                        5.94189573375385         6.553042846969359        0.07205174407595384
-8                        5.94189573375385         6.553042846969359        0.09227959904221515
-7.999999999999998        7.999999999999998        5.128205128205133        0.09227959904221515
-8                        8                        7.692307692307701        0.09227959904221515
-8                        -5.746647837406634       6.703549938355801        0.09255387222960862
-8                        -5.786728177056389       8.980454142114658        0.09255387222960862
-8                        -8                       7.692307692307701        0.09255387222960862
-8                        -3.6408576312798684      5.745116325733803        0.08002446398836237
-8                        -3.7122975175897484      7.883722758340506        0.08002446398836237
-8                        -5.746647837406634       6.703549938355801        0.08002446398836237
-8                        -5.786728177056389       8.980454142114658        0.09086417749664305
-8                        -5.746647837406634       6.703549938355801        0.09086417749664305
-8                        -3.7122975175897484      7.883722758340506        0.09086417749664305
-8                        -1.0666328400541012      3.8460760166785235       0.054554448503197794
-8                        -2.1043988840981296      2.225593583014818        0.054554448503197794
-8                        0                        2.1395157600494485       0.054554448503197794
-8                        -2.1043988840981296      2.225593583014818        0.05111271517145881
-8                        -1.0666328400541012      3.8460760166785235       0.05111271517145881
-8                        -3.041207673239231       3.888516329869307        0.05111271517145881
-8                        -1.0666328400541012      3.8460760166785235       0.05561742377600846
-8                        0                        2.1395157600494485       0.05561742377600846
-8                        1.0269477883073517       4.034277380187001        0.05561742377600846
-8                        -1.9515480287373954      6.926208432567616        0.0664153898244992
-8                        -3.7122975175897484      7.883722758340506        0.0664153898244992
-8                        -3.6408576312798684      5.745116325733803        0.0664153898244992
-8                        -2.010239761225051       5.2158163145966          0.03602984463796928
-8                        -3.6408576312798684      5.745116325733803        0.03602984463796928
-8                        -3.041207673239231       3.888516329869307        0.03602984463796928
-8                        -2.010239761225051       5.2158163145966          0.03782545816232928
-8                        -3.041207673239231       3.888516329869307        0.03782545816232928
-8                        -1.0666328400541012      3.8460760166785235       0.03782545816232928
-8                        -2.010239761225051       5.2158163145966          0.04625799140047415
-8                        -1.9515480287373954      6.926208432567616        0.04625799140047415
-8                        -3.6408576312798684      5.745116325733803        0.04625799140047415
-8                        1.0269477883073517       4.034277380187001        0.07755710947553034
-8                        3.268663356429825        4.160269695150487        0.07755710947553034
-8                        1.962363115826589        6.3043447651149          0.07755710947553034
-8                        4.191857806960444        5.720834870997327        0.06579250521771876
-8                        1.962363115826589        6.3043447651149          0.06579250521771876
-8                        3.268663356429825        4.160269695150487        0.06579250521771876
-8                        -1.0666328400541012      3.8460760166785235       0.059989173737484185
-8                        1.0269477883073517       4.034277380187001        0.059989173737484185
-8                        -0.3532909498000407      5.703356428415108        0.059989173737484185
-8                        -2.010239761225051       5.2158163145966          0.04704554946531136
-8                        -1.0666328400541012      3.8460760166785235       0.04704554946531136
-8                        -0.3532909498000407      5.703356428415108        0.04704554946531136
-8                        -0.3532909498000407      5.703356428415108        0.07748868842987813
-8                        1.0269477883073517       4.034277380187001        0.07748868842987813
-8                        1.962363115826589        6.3043447651149          0.07748868842987813
-8                        -2.010239761225051       5.2158163145966          0.04875181269805805
-8                        -0.3532909498000407      5.703356428415108        0.04875181269805805
-8                        -1.9515480287373954      6.926208432567616        0.04875181269805805
-8                        -1.9515480287373954      6.926208432567616        0.06692597217242513
-8                        -0.3532909498000407      5.703356428415108        0.06692597217242513
-8                        -0.08063597291763759     7.893415661345959        0.06692597217242513
-8                        -0.3532909498000407      5.703356428415108        0.07310151265960174
-8                        1.962363115826589        6.3043447651149          0.07310151265960174
-8                        -0.08063597291763759     7.893415661345959        0.07310151265960174
-8                        4.191857806960444        5.720834870997327        0.07097031359952562
-8                        5.94189573375385         6.553042846969359        0.07097031359952562
-8                        3.882628231042066        7.79608719775009         0.07097031359952562
-8                        4.191857806960444        5.720834870997327        0.06723580822899754
-8                        3.882628231042066        7.79608719775009         0.06723580822899754
-8                        1.962363115826589        6.3043447651149          0.06723580822899754
-8                        -1.9515480287373954      6.926208432567616        0.06128225201099852
-8                        -1.895738749287311       9.105278866375667        0.06128225201099852
-8                        -3.7122975175897484      7.883722758340506        0.06128225201099852
-8                        -1.9515480287373954      6.926208432567616        0.06632538768601093
-8                        -0.08063597291763759     7.893415661345959        0.06632538768601093
-8                        -1.895738749287311       9.105278866375667        0.06632538768601093
-8                        -5.786728177056389       8.980454142114658        0.0974453792904572
-7.999999999999998        -7.999999999999998       10.256410256410268       0.0974453792904572
-8                        -8                       7.692307692307701        0.0974453792904572
-8                        3.882628231042066        7.79608719775009         0.08897646761584631
-8                        1.799033486682216        8.98930315195119         0.08897646761584631
-8                        1.962363115826589        6.3043447651149          0.08897646761584631
-8                        -0.08063597291763759     7.893415661345959        0.10106480749155677
-8                        1.962363115826589        6.3043447651149          0.10106480749155677
-8                        1.799033486682216        8.98930315195119         0.10106480749155677
-8                        1.799033486682216        8.98930315195119         0.08786933476705183
-8                        3.882628231042066        7.79608719775009         0.08786933476705183
-8                        3.5522045550610564       10.25641025641022        0.08786933476705183
-8                        5.94189573375385         6.553042846969359        0.09337676533419534
-8                        8                        7.692307692307701        0.09337676533419534
-8                        5.776102277530525        8.974358974358987        0.09337676533419534
-8                        3.882628231042066        7.79608719775009         0.08083430589231203
-8                        5.94189573375385         6.553042846969359        0.08083430589231203
-8                        5.776102277530525        8.974358974358987        0.08083430589231203
-8                        3.882628231042066        7.79608719775009         0.08000232910167128
-8                        5.776102277530525        8.974358974358987        0.08000232910167128
-8                        3.5522045550610564       10.25641025641022        0.08000232910167128
-8                        8                        7.692307692307701        0.10479810432705718
-7.999999999999998        7.999999999999998        10.256410256410268       0.10479810432705718
-8                        5.776102277530525        8.974358974358987        0.10479810432705718
-8                        1.799033486682216        8.98930315195119         0.08364249137353633
-8                        -0.08321872793017526     10.247747910984728       0.08364249137353633
-8                        -0.08063597291763759     7.893415661345959        0.08364249137353633
-8                        -1.895738749287311       9.105278866375667        0.06819732538495075
-8                        -0.08063597291763759     7.893415661345959        0.06819732538495075
-8                        -0.08321872793017526     10.247747910984728       0.06819732538495075
-8                        3.5522045550610564       10.25641025641022        0.08236962435705901
-8                        1.7217323080633822       11.505753302241995       0.08236962435705901
-8                        1.799033486682216        8.98930315195119         0.08236962435705901
-8                        -0.08321872793017526     10.247747910984728       0.07976729470769606
-8                        1.799033486682216        8.98930315195119         0.07976729470769606
-8                        1.7217323080633822       11.505753302241995       0.07976729470769606
-7.999999999999998        -7.999999999999998       10.256410256410268       0.10086136003959868
-8                        -5.776102277530514       11.538461538461497       0.10086136003959868
-8                        -8                       12.820512820512837       0.10086136003959868
-8                        -5.786728177056389       8.980454142114658        0.10570540222032096
-8                        -5.776102277530514       11.538461538461497       0.10570540222032096
-7.999999999999998        -7.999999999999998       10.256410256410268       0.10570540222032096
-8                        -3.7540090134038966      10.312804120893947       0.09197610065098144
-8                        -5.776102277530514       11.538461538461497       0.09197610065098144
-8                        -5.786728177056389       8.980454142114658        0.09197610065098144
-8                        -3.7122975175897484      7.883722758340506        0.0931401529104353
-8                        -3.7540090134038966      10.312804120893947       0.0931401529104353
-8                        -5.786728177056389       8.980454142114658        0.0931401529104353
-8                        -1.895738749287311       9.105278866375667        0.07732811575639273
-8                        -3.7540090134038966      10.312804120893947       0.07732811575639273
-8                        -3.7122975175897484      7.883722758340506        0.07732811575639273
-8                        -3.7540090134038966      10.312804120893947       0.08137906790187736
-8                        -1.895738749287311       9.105278866375667        0.08137906790187736
-8                        -1.9204304450892735      11.511182428211475       0.08137906790187736
-8                        -0.08321872793017526     10.247747910984728       0.08454199846863375
-8                        -1.9204304450892735      11.511182428211475       0.08454199846863375
-8                        -1.895738749287311       9.105278866375667        0.08454199846863375
-8                        1.7217323080633822       11.505753302241995       0.08838885328315521
-8                        3.5522045550610564       10.25641025641022        0.08838885328315521
-8                        3.5522045550610244       12.82051282051282        0.08838885328315521
-7.999999999999998        7.999999999999998        10.256410256410268       0.10587500467722244
-8                        8                        12.820512820512837       0.10587500467722244
-8                        5.776102277530514        11.538461538461497       0.10587500467722244
-8                        5.776102277530525        8.974358974358987        0.10183936134832829
-7.999999999999998        7.999999999999998        10.256410256410268       0.10183936134832829
-8                        5.776102277530514        11.538461538461497       0.10183936134832829
-8                        5.776102277530525        8.974358974358987        0.113227981930748
-8                        5.776102277530514        11.538461538461497       0.113227981930748
-8                        3.5522045550610564       10.25641025641022        0.113227981930748
-8                        3.5522045550610564       10.25641025641022        0.10731100318499237
-8                        5.776102277530514        11.538461538461497       0.10731100318499237
-8                        3.5522045550610244       12.82051282051282        0.10731100318499237
-8                        8                        12.820512820512837       0.10352646500079674
-8.000000000000002        8.000000000000002        15.384615384615401       0.10352646500079674
-8                        5.776102277530524        14.10256410256412        0.10352646500079674
-8                        5.776102277530514        11.538461538461497       0.11162518759431146
-8                        8                        12.820512820512837       0.11162518759431146
-8                        5.776102277530524        14.10256410256412        0.11162518759431146
-8                        5.776102277530514        11.538461538461497       0.10688369204999437
-8                        5.776102277530524        14.10256410256412        0.10688369204999437
-8                        3.5522045550610244       12.82051282051282        0.10688369204999437
-8                        -8                       12.820512820512837       0.1151802449748302
-8                        -5.776102277530524       14.10256410256412        0.1151802449748302
-8.000000000000002        -8.000000000000002       15.384615384615401       0.1151802449748302
-8                        -5.776102277530514       11.538461538461497       0.10494835532934474
-8                        -5.776102277530524       14.10256410256412        0.10494835532934474
-8                        -8                       12.820512820512837       0.10494835532934474
-8                        -3.721562756843417       12.74242196360682        0.11252863605771099
-8                        -5.776102277530524       14.10256410256412        0.11252863605771099
-8                        -5.776102277530514       11.538461538461497       0.11252863605771099
-8                        -5.776102277530514       11.538461538461497       0.09537290767531005
-8                        -3.7540090134038966      10.312804120893947       0.09537290767531005
-8                        -3.721562756843417       12.74242196360682        0.09537290767531005
-8                        -1.9204304450892735      11.511182428211475       0.08630691694673914
-8                        -3.721562756843417       12.74242196360682        0.08630691694673914
-8                        -3.7540090134038966      10.312804120893947       0.08630691694673914
-8                        1.7217323080633822       11.505753302241995       0.09095258200068913
-8                        -0.10906543442189731     12.747966585779945       0.09095258200068913
-8                        -0.08321872793017526     10.247747910984728       0.09095258200068913
-8                        -1.9204304450892735      11.511182428211475       0.08484971755485612
-8                        -0.08321872793017526     10.247747910984728       0.08484971755485612
-8                        -0.10906543442189731     12.747966585779945       0.08484971755485612
-8                        -3.721562756843417       12.74242196360682        0.09598936380788034
-8                        -1.9204304450892735      11.511182428211475       0.09598936380788034
-8                        -1.9364541467296488      13.992417313189275       0.09598936380788034
-8                        -0.10906543442189731     12.747966585779945       0.08917613586265193
-8                        -1.9364541467296488      13.992417313189275       0.08917613586265193
-8                        -1.9204304450892735      11.511182428211475       0.08917613586265193
-8                        3.5522045550610244       12.82051282051282        0.08110230078600542
-8                        1.7164563219627242       14.05512977703225        0.08110230078600542
-8                        1.7217323080633822       11.505753302241995       0.08110230078600542
-8                        -0.10906543442189731     12.747966585779945       0.08812412462150836
-8                        1.7217323080633822       11.505753302241995       0.08812412462150836
-8                        1.7164563219627242       14.05512977703225        0.08812412462150836
-8                        3.5522045550610244       12.82051282051282        0.11498148917332703
-8                        5.776102277530524        14.10256410256412        0.11498148917332703
-8                        3.552204555061049        15.384615384615397       0.11498148917332703
-8                        1.7164563219627242       14.05512977703225        0.09277854084319669
-8                        3.5522045550610244       12.82051282051282        0.09277854084319669
-8                        3.552204555061049        15.384615384615397       0.09277854084319669
-8                        5.776102277530524        14.10256410256412        0.11915146143956985
-8.000000000000002        8.000000000000002        15.384615384615401       0.11915146143956985
-8                        5.776102277530525        16.66666666666668        0.11915146143956985
-8                        5.776102277530524        14.10256410256412        0.11043731836644334
-8                        5.776102277530525        16.66666666666668        0.11043731836644334
-8                        3.552204555061049        15.384615384615397       0.11043731836644334
-8.000000000000002        8.000000000000002        15.384615384615401       0.10561449932904214
-7.999999999999998        7.999999999999998        17.948717948717967       0.10561449932904214
-8                        5.776102277530525        16.66666666666668        0.10561449932904214
-8                        -5.776102277530524       14.10256410256412        0.0868991544584899
-8                        -3.721562756843417       12.74242196360682        0.0868991544584899
-8                        -3.830218715012013       15.31543874986767        0.0868991544584899
-8                        -1.9364541467296488      13.992417313189275       0.09569204121138003
-8                        -3.830218715012013       15.31543874986767        0.09569204121138003
-8                        -3.721562756843417       12.74242196360682        0.09569204121138003
-8.000000000000002        -8.000000000000002       15.384615384615401       0.10547304701564857
-8                        -5.776102277530526       16.66666666666665        0.10547304701564857
-7.999999999999998        -7.999999999999998       17.948717948717967       0.10547304701564857