% Model:              Cav_Hex_Unif_flux_v5.1.1 - Lin. Distn.mph
% Version:            COMSOL 5.5.0.359
% Date:               May 16 2022, 14:36
% Dimension:          3
% Nodes:              4857
% Expressions:        1
% Description:        Surface
% x                       y                        z                        Color
-0.5                      0.09999999999999996      25                       0
-0.5                      -0.09999999999999998     25                       0
-0.5                      0.002333654667216245     24.827275042433737       0
-0.5                      -0.15583266574925767     24.800547314462463       0
-0.5                      -0.07423961492809218     24.665548796588457       0
-0.5                      0.15526738994042688      24.806432189614757       0
-0.5                      0.08905723034895052      24.69507632821304        0
-0.5                      0.29999999999999993      25                       0
-0.5                      0.3056604652107924       24.872713706582054       0
-0.5                      0.2786954013243277       24.65920784804271        0
-0.5                      0.5                      25                       0
-0.5000000000000001       -0.3                     25.000000000000004       0
-0.5                      -0.3064266791152874      24.871321035059168       0
-0.5                      -0.2831192577147499      24.656964441909313       0
-0.5                      -0.5                     25                       0
-0.5                      -0.13974644514749565     24.52118840190945        0
-0.5                      0.08322932074087364      24.516917764385525       1.9637692444611677E-218
-0.5                      -0.30598256131349244     24.430797541212534       1.9637692444609274E-167
-0.5                      0.3010088142157503       24.426605504587158       1.3091794963074452E-218
-0.5                      0.5                      24.770642201834864       0
-0.5                      0.5                      24.541284403669728       0
-0.5                      0.5                      24.31192660550459        0
-0.5                      -0.5                     24.770642201834864       0
-0.5                      -0.5                     24.541284403669728       0
-0.5                      -0.5                     24.31192660550459        1.309179496307285E-167
-0.5                      0.09548845746265988      24.275997848150404       9.818846222305006E-183
-0.5                      -0.3029759389457244      24.212491566799226       1.9637692444609274E-167
-0.5                      -0.11005372607298469     24.340929827482917       1.9637692444610013E-182
-0.5                      -0.10167562101216455     24.125628977363363       1.3091794963070988E-91
-0.5                      0.30100881421575076      24.19724770642202        6.070169891416686E-238
-0.5                      0.09941314268873393      24.048657308661454       1.9637692444606482E-91
-0.5                      0.5                      24.082568807339452       2.5444056508931914E-169
-0.5                      -0.5                     24.082568807339452       1.0898919306756824E-101
-0.5                      -0.30053688752608054     23.985676243263974       1.9834069369052956E-101
-0.5                      -0.5                     23.853211009174313       7.85507697784329E-89
-0.5                      -0.10027927016869431     23.89861400387249        1.3091794963070988E-91
-0.5                      -0.30025761975987364     23.756786955412203       1.3091794963071686E-117
-0.5                      -0.10004654502811551     23.669646676486394       1.3091794963071686E-117
-0.5                      -0.3002110891466807      23.527506923673975       1.963769244460753E-117
-0.5                      0.10051432369201652      23.59076989552934        1.3091794963069445E-38
-0.5                      0.1003171163817339       23.819942443961196       1.3091794963069445E-38
-0.5                      0.3010088142157509       23.967889908256883       1.9637692444606828E-107
-0.5                      0.5                      23.853211009174313       0
-0.5                      0.30100881421575076      23.738532110091743       1.3091794963069445E-38
-0.5                      -0.10000775750468549     23.440353956784428       3.816608476339801E-178
-0.5                      0.10055494908174933      23.361455988012388       7.855076977842329E-85
-0.5                      0.30100881421575143      23.50917431192661        4.87058484008275E-135
-0.5                      0.5                      23.623853211009177       4.87058484008275E-135
-0.5                      -0.5                     23.623853211009177       0
-0.5                      0.5                      23.394495412844037       2.92235090404965E-135
-0.5                      -0.5                     23.394495412844037       1.0909818226065312E-175
-0.5                      -0.10000129291744783     23.21100700502982        4.870584840082987E-159
-0.5                      -0.3002034181315325      23.29816017482807        1.9836033138300564E-175
-0.5                      -0.5                     23.1651376146789         7.265946204504332E-95
-0.5                      -0.30020264415131026     23.068792747704602       1.3091794963070888E-95
-0.5                      -0.10000021548624183     22.981651014599773       1.9834069369055546E-166
-0.5                      -0.30020554228842167     22.839364521643894       7.85507697784261E-97
-0.5                      0.10056301289748537      23.132107674237385       7.855076977842329E-85
-0.5                      0.10056457235301687      22.902751818350954       7.855076977842574E-90
-0.5                      0.3010088142157503       23.27981651376147        9.818846222302911E-85
-0.5                      0.5                      23.1651376146789         2.922350904052165E-160
-0.5                      0.3010088142157498       23.050458715596328       9.818846222302668E-72
-0.5                      -0.10000003591437279     22.752293517723814       1.3091794963071018E-96
-0.5                      0.30100881421575376      22.821100917431195       6.54589748160057E-72
-0.5                      0.10056486817664567      22.67339440415677        9.818846222303218E-90
-0.5                      0.3010088142157498       22.59174311926606        9.81884622230305E-83
-0.5                      0.5                      22.935779816513758       6.545897481535112E-72
-0.5                      -0.5                     22.935779816513758       7.265946204504332E-95
-0.5                      0.5                      22.70642201834863        6.5458974815353674E-83
-0.5                      -0.5                     22.70642201834863        7.265946204504813E-122
-0.5                      -0.3002241881141662      22.609582047081076       1.3091794963071018E-96
-0.5                      -0.10000000598572847     22.52293576977354        0
-0.5                      -0.3003938130259518      22.387334296339827       1.9637692640990225E-262
-0.5                      -0.09982439311623459     22.29757050374126        4.046779927611107E-232
-0.5                      -0.3002241813247972      22.150866462142137       7.855076977843152E-128
-0.5                      0.10056761349522647      22.444097841870477       0
-0.5                      0.3010088142157493       22.362385321100916       4.870584840082926E-152
-0.5                      0.10064758346517745      22.216557933184315       7.855076977841786E-45
-0.5                      0.30100881421575226      22.133027522935777       7.855076977841786E-45
-0.5                      0.10065854384124417      21.987449314564895       6.545897481534822E-45
-0.5000000000000001       0.5000000000000001       22.47706422018349        1.3091794963074697E-224
-0.5                      0.5                      22.247706422018346       3.911651782192709E-159
-0.5000000000000001       -0.5000000000000001      22.47706422018349        3.9116517821927845E-160
-0.5                      -0.5                     22.247706422018346       9.819828106926727E-159
-0.4999999999999999       -0.4999999999999999      22.018348623853214       7.201141819438125E-159
-0.5                      -0.0997733285409016      22.06937365436797        7.855076977842249E-74
-0.5                      -0.09976118511962218     21.840291935515825       7.855076977842249E-74
-0.4999999999999999       -0.4999999999999999      21.78899082568807        7.200487229688621E-65
-0.5                      -0.30020549928908835     21.921933401128467       7.855076977843152E-128
-0.5                      -0.30020238558952833     21.692646392533774       6.5458974815351085E-65
-0.4999999999999999       0.4999999999999999       22.018348623853214       8.640584675626536E-78
-0.5                      0.10066109710341087      21.758149563895383       6.545897481535228E-77
-0.5                      0.3010088142157498       21.90366972477064        6.611356456350581E-77
-0.5                      0.3010088142157503       21.6743119266055         6.54589748153599E-81
-0.5                      0.1006616437369573       21.528804193243175       9.818846222302405E-55
-0.5                      -0.0997585557677162      21.61099391521959        3.6529386300618646E-101
-0.5                      0.30100881421575176      21.444954128440365       9.818846222303005E-81
-0.5                      0.10066175502436514      21.299448925152202       6.545897481535591E-55
-0.5                      0.30100881421575176      21.215596330275226       2.435292420284852E-116
-0.5                      0.1006617769359317       21.070091625136474       6.545897481535177E-68
-0.4999999999999999       0.4999999999999999       21.78899082568807        6.54589748153541E-94
-0.4999999999999999       -0.4999999999999999      21.55963302752293        7.200487229688621E-65
-0.4999999999999999       0.4999999999999999       21.55963302752293        6.545897481535337E-81
-0.4999999999999999       0.4999999999999999       21.330275229357795       6.611356456351203E-117
-0.5                      -0.3002018666351114      21.463300392637912       6.545897481535331E-83
-0.4999999999999999       -0.4999999999999999      21.330275229357795       7.855076977842099E-70
-0.5                      -0.0997580166334654      21.38164837414242        6.545897481534937E-55
-0.5                      -0.09975790995945577     21.152293001177156       6.54589748153454E-27
-0.5                      -0.3002017801419601      21.23394456085224        6.545898753804732E-161
-0.5                      -0.09975788937737959     20.922935670937356       6.545897546993402E-19
-0.5                      -0.3002017657263105      21.00458709041723        6.545897546993402E-19
-0.5                      0.3010088142157513       20.98623853211009        7.855076977842237E-78
-0.5                      0.10066178114847524      20.84073392274131        2.9223509826002224E-103
-0.5                      -0.09975788547985032     20.693577961380672       2.4352989659387253E-105
-0.4999999999999999       0.4999999999999999       21.100917431192663       6.545897481535121E-73
-0.4999999999999999       -0.4999999999999999      21.100917431192663       6.545897481534983E-63
-0.5000000000000001       -0.5000000000000001      20.871559633027523       6.545897481534953E-48
-0.5                      -0.3002017633236808      20.775229346873815       6.545897481534427E-19
-0.5000000000000001       -0.5000000000000001      20.642201834862394       7.855076977841856E-48
-0.5                      -0.30020176292323886     20.545871557812305       3.652938630061866E-105
-0.5000000000000001       0.5000000000000001       20.871559633027523       6.545962940509937E-73
-0.5                      0.10066178194400222      20.611376142662017       2.922350904049579E-120
-0.5                      0.30100881421575226      20.756880733944957       7.855076977842237E-78
-0.5000000000000001       0.5000000000000001       20.642201834862394       6.545897621484997E-138
-0.5                      -0.09975788475239789     20.46422017975376        6.545897481534828E-49
-0.5                      -0.30020176285649824     20.316513761164437       7.855076977841743E-35
-0.5                      -0.09975788461817858     20.234862384640014       6.545897481534828E-49
-0.5                      0.10066178209216248      20.38201834786522        6.545897481534551E-32
-0.5                      0.3010088142157498       20.527522935779825       7.855076977841461E-32
-0.5                      0.3010088142157498       20.298165137614685       6.545897481534551E-32
-0.5                      0.10066178211945143      20.152660550320473       2.4352924200412192E-98
-0.5000000000000001       0.5000000000000001       20.41284403669725        6.545897481536493E-171
-0.5000000000000001       -0.5000000000000001      20.41284403669725        2.437727712461323E-110
-0.4999999999999999       -0.4999999999999999      20.18348623853211        7.855076977841664E-35
-0.5                      -0.30020176284537503     20.087155963252172       6.54589748153472E-35
-0.4999999999999999       0.4999999999999999       20.18348623853211        7.85507697784304E-126
-0.5                      -0.30020176284352096     19.85779816512919        6.545897481534963E-58
-0.5                      -0.09975788459364575     20.005504587032615       7.855084832920068E-129
-0.5                      0.3010088142157503       20.068807339449542       7.855076977841547E-30
-0.5                      0.10066178212443244      19.923302752268576       2.9223509119831965E-118
-0.5                      -0.0997578845891962      19.776146788968628       7.855076977841495E-33
-0.5                      -0.09975788459364575     20.005504587032615       3.927538488920583E-11
-0.5                      -0.0997578845891962      19.776146788968628       3.927538488920583E-11
-0.5                      0.10066178212443244      19.923302752268576       3.927538488920583E-11
-0.5                      0.5                      19.954128440366972       6.545897481534621E-30
-0.5                      0.30100881421575154      19.839449541284402       7.855076977841547E-30
-0.5                      0.10066178212533494      19.693944954123946       1.309179496306916E-32
-0.5                      0.301008814215751        19.610091743119266       9.818846222302707E-67
-0.5                      -0.5                     19.954128440366972       6.54589748160773E-116
-0.5                      0.5                      19.724770642201836       6.545897481535295E-78
-0.5                      -0.5                     19.724770642201836       7.200487229687966E-29
-0.5                      -0.3002017628432119      19.628440366971077       6.545897481534512E-29
-0.5                      -0.5                     19.4954128440367         7.200487229687966E-29
-0.5                      -0.09975788458839444     19.546788990821714       6.61135645634999E-31
-0.5                      -0.3002017628431606      19.399082568807106       6.5458974815346445E-31
-0.5                      -0.09975788458825086     19.317431192659843       6.5458974815346445E-31
-0.5                      0.5                      19.4954128440367         6.61135645635049E-67
-0.5                      0.10066178212549727      19.464587155962498       9.818846222304082E-136
-0.5                      0.10066178212552634      19.235229357798023       7.85507697784227E-80
-0.5                      0.30100881421575043      19.38073394495413        9.818846222303689E-67
-0.5                      0.5                      19.26605504587156        9.818846222302748E-69
-0.5                      0.5                      19.036697247706428       7.933627747620604E-68
-0.5                      0.3010088142157513       19.151376146788994       6.545897482189769E-70
-0.5                      -0.3002017628431518      19.169724770642162       6.545897481535554E-48
-0.5                      -0.09975788458822524     19.08807339449529        7.93362774762064E-72
-0.5                      0.10066178212553145      19.005871559633004       7.855076977845173E-74
-0.5                      0.10066178212553145      19.005871559633004       3.9275384889205714E-6
-0.5                      0.10066178212552634      19.235229357798023       3.9275384889205714E-6
-0.5                      -0.09975788458822524     19.08807339449529        3.9275384889205714E-6
-0.5                      -0.3002017628431505      18.940366972477058       6.545897481534899E-48
-0.5                      -0.5                     19.26605504587156        6.545897481535491E-47
-0.5                      -0.5                     19.036697247706428       6.545897481534899E-48
-0.5                      0.5                      18.807339449541285       7.200487229688668E-68
-0.5                      0.3010088142157503       18.922018348623855       6.611356456350503E-68
-0.5                      0.30100881421575154      18.69266055045872        6.545897481535241E-74
-0.5                      0.5                      18.57798165137615        6.545897481535168E-69
-0.5                      0.3010088142157503       18.46330275229358        6.545897481535352E-89
-0.5                      0.10066178212553245      18.776513761467886       6.545897481535241E-74
-0.5                      -0.09975788458822066     18.858715596330256       6.612011046098592E-70
-0.5                      -0.30020176284315003     18.711009174311926       7.933627747620493E-68
-0.5                      -0.09975788458821985     18.629357798165135       6.545897481535029E-66
-0.5                      -0.3002017628431499      18.481651376146786       6.545897488080981E-70
-0.5                      0.10066178212553258      18.547155963302753       6.545897546994004E-66
-0.5                      -0.09975788458821988     18.4                     6.545897481535029E-66
-0.5                      -0.5                     18.807339449541285       7.855076977842857E-68
-0.5                      -0.5                     18.807339449541285       0.003927538488920559
-0.5                      -0.5                     18.57798165137615        0.003927538488920559
-0.5                      -0.30020176284315003     18.711009174311926       0.003927538488920559
-0.5                      -0.5                     18.57798165137615        7.855076977842092E-65
-0.5                      -0.5                     18.34862385321101        6.545898136131309E-58
-0.5                      -0.3002017628431499      18.25229357798165        9.818846222302626E-70
-0.5                      -0.09975788458822021     18.17064220183486        7.855076977841803E-52
-0.5                      0.5                      18.34862385321101        6.545897481534817E-51
-0.5                      0.10066178212553223      18.317798165137614       6.545897481535388E-85
-0.5                      0.10066178212553212      18.088440366972474       6.546552071283391E-81
-0.5                      0.3010088142157503       18.233944954128443       6.546617530258357E-85
-0.5                      0.30100881421574965      18.0045871559633         6.545897481535035E-59
-0.5                      0.301008814215754        17.775229357798167       6.545898136124783E-59
-0.5                      0.10066178212553278      17.85908256880734        6.545898136124783E-59
-0.5                      0.5                      18.119266055045873       6.552443379082309E-87
-0.4999999999999999       0.4999999999999999       17.88990825688073        8.640584675626601E-86
-0.5                      -0.5                     18.119266055045873       8.64058475417671E-50
-0.5                      -0.09975788458822012     17.941284403669723       6.5458974815348364E-52
-0.5                      -0.09975788458821956     17.711926605504587       6.545897481534844E-53
-0.5                      -0.30020176284315087     18.022935779816514       8.640584675625959E-51
-0.4999999999999999       -0.4999999999999999      17.88990825688073        7.200487229688284E-50
-0.5                      -0.3002017628431505      17.793577981651374       6.790081313287376E-72
-0.5                      -0.5                     17.6605504587156         2.4352924200418126E-73
-0.5                      -0.3002017628431496      17.564220183486242       3.089882174747114E-73
-0.4999999999999999       -0.4999999999999999      17.43119266055046        6.54589748153691E-89
-0.5                      -0.30020176284315014     17.334862385321106       6.545898161132399E-67
-0.4999999999999999       -0.4999999999999999      17.20183486238532        6.5458974815350555E-68
-0.5                      0.5                      17.6605504587156         7.855862485540474E-105
-0.5                      0.1006617821255329       17.629724770642202       6.552443379017032E-53
-0.5                      0.30100881421574943      17.54587155963303        6.545897481534733E-38
-0.5                      -0.3002017628431499      17.105504587155963       6.54589748153454E-24
-0.5                      -0.09975788458821956     17.482568807339447       6.545897481534844E-53
-0.5                      0.10066178212553234      17.40036697247707        6.545897481534733E-38
-0.5                      -0.09975788458821977     17.25321100917431        6.545904052440133E-67
-0.5                      0.30100881421574954      17.31651376146789        6.545897481534733E-38
-0.4999999999999999       0.4999999999999999       17.43119266055046        1.4138917049896058E-88
-0.4999999999999999       -0.4999999999999999      16.97247706422019        6.545897481535348E-82
-0.5                      -0.30020176284315025     16.64678899082569        7.20048722968949E-79
-0.5                      -0.30020176284315014     16.876146788990827       6.54589748153454E-24
-0.5                      -0.5                     16.743119266055047       1.3098340860552055E-78
-0.5                      -0.09975788458821977     17.02385321100918        6.545897481534547E-24
-0.5                      -0.09975788458821977     16.794495412844036       6.54589748153475E-39
-0.4999999999999999       0.4999999999999999       17.20183486238532        6.545897481535268E-76
-0.5                      0.10066178212553258      17.171009174311923       6.545897481535263E-76
-0.5                      0.10066178212553267      16.941651376146787       6.54589748153475E-39
-0.5                      0.30100881421575226      17.087155963302752       6.5458974815348466E-46
-0.4999999999999999       0.4999999999999999       16.97247706422019        6.545897481600306E-46
-0.5                      0.3010088142157503       16.857798165137616       6.611356456415654E-46
-0.5                      0.10066178212553267      16.71229357798165        6.545897488080673E-48
-0.5                      -0.09975788458821966     16.5651376146789         6.545962940509693E-55
-0.5                      0.3010088142157513       16.628440366972473       6.545897488080673E-48
-0.5                      0.10066178212553278      16.48293577981651        6.545897481534877E-55
-0.5                      0.5                      16.743119266055047       1.31572539378852E-54
-0.5                      0.5                      16.51376146788991        6.545897481535632E-55
-0.5                      -0.5                     16.51376146788991        6.545897485883513E-79
-0.5                      -0.30020176284315003     16.41743119266055        6.545897481534623E-37
-0.5                      -0.5                     16.284403669724774       6.545897481535097E-64
-0.5                      -0.09975788458821963     16.335779816513764       6.545897481534623E-37
-0.5                      -0.3002017628431498      16.188073394495415       6.545897481534623E-37
-0.5                      -0.5                     16.055045871559635       7.20048788427836E-64
-0.5                      -0.30020176284315037     15.958715596330276       6.545897488081039E-71
-0.5                      0.3010088142157513       16.39908256880734        6.55244337901652E-63
-0.5                      0.10066178212553258      16.253577981651375       6.5458974815349845E-56
-0.5                      -0.09975788458821988     16.106422018348624       6.545897525041416E-67
-0.5                      0.10066178212553223      16.024220183486236       6.545897481534806E-42
-0.5                      0.30100881421575054      16.1697247706422         6.545897481534806E-42
-0.5                      0.30100881421574965      15.940366972477065       7.200487229688203E-41
-0.5                      0.5                      16.284403669724774       6.545897553546341E-51
-0.5                      0.5                      16.055045871559635       1.3091794963724094E-40
-0.5                      -0.5                     15.825688073394494       7.855077064248017E-71
-0.5                      -0.3002017628431506      15.729357798165141       6.5458974815352215E-80
-0.5                      -0.09975788458822012     15.877064220183486       6.545897481535039E-67
-0.5                      -0.09975788458821977     15.647706422018349       6.545897481534673E-37
-0.4999999999999999       -0.4999999999999999      15.59633027522936        6.545897481535352E-82
-0.5                      -0.30020176284315014     15.500000000000004       6.545897481534673E-37
-0.5                      0.5                      15.825688073394494       6.545897481534728E-41
-0.5                      0.10066178212553258      15.794862385321101       6.545897481534714E-40
-0.5                      0.30100881421575215      15.711009174311924       6.545897481534714E-40
-0.5                      0.100661782125533        15.565504587155965       6.545897481534714E-40
-0.5                      -0.09975788458821956     15.418348623853213       6.545897481534673E-37
-0.5                      0.30100881421575215      15.481651376146793       2.4352924200410298E-65
-0.5                      0.1006617821255329       15.33614678899083        2.5073216452686624E-65
-0.5                      0.30100881421575054      15.252293577981654       6.545899923373297E-59
-0.4999999999999999       0.4999999999999999       15.59633027522936        7.20048722968874E-69
-0.5000000000000001       0.5000000000000001       15.366972477064223       7.855076977841988E-60
-0.5000000000000001       -0.5000000000000001      15.366972477064223       6.545897481534733E-41
-0.5                      -0.30020176284315014     15.270642201834866       7.855076977841679E-41
-0.4999999999999999       -0.4999999999999999      15.137614678899086       7.855076977841674E-41
-0.5                      -0.09975788458821956     15.188990825688077       7.855076977849734E-53
-0.5                      -0.30020176284315003     15.04128440366973        3.9275384889205857E-10
-0.5                      -0.30020176284315014     15.270642201834866       3.9275384889205857E-10
-0.4999999999999999       -0.4999999999999999      15.137614678899086       3.9275384889205857E-10
-0.5                      -0.30020176284315003     15.04128440366973        9.818846222302196E-46
-0.5                      -0.5                     14.90825688073395        6.545897481534519E-26
-0.5                      -0.30020176284315003     14.811926605504592       6.545897481535271E-33
-0.5                      -0.09975788458821966     14.959633027522939       7.93362782617103E-51
-0.5                      -0.09975788458821966     14.959633027522939       3.927538488920569E-8
-0.5                      -0.09975788458821956     15.188990825688077       3.927538488920569E-8
-0.5                      -0.30020176284315003     15.04128440366973        3.927538488920569E-8
-0.5                      -0.09975788458821977     14.730275229357801       6.545897481534615E-33
-0.4999999999999999       0.4999999999999999       15.137614678899086       7.2004872296884775E-59
-0.5                      0.10066178212553278      15.106788990825692       6.545897481534905E-53
-0.5                      0.10066178212553258      14.877431192660554       7.200487229754451E-50
-0.5                      0.3010088142157513       15.022935779816518       6.546552071283132E-59
-0.5                      0.30100881421575043      14.79357798165138        6.545897481534617E-33
-0.5                      0.10066178212553234      14.648073394495414       6.545897481600309E-50
-0.5                      0.30100881421575054      14.564220183486242       6.611356456349962E-33
-0.5                      0.10066178212553234      14.418715596330278       6.545897481534642E-35
-0.5                      0.5                      14.90825688073395        6.545897481535076E-66
-0.5                      0.5                      14.678899082568812       6.545897481534617E-33
-0.5                      0.5                      14.449541284403672       6.545897481534843E-49
-0.5                      -0.5                     14.678899082568812       7.273146691733655E-68
-0.5                      -0.09975788458821991     14.500917431192661       6.611356456350684E-84
-0.5                      -0.30020176284315003     14.582568807339452       6.545897481534615E-33
-0.5                      -0.30020176284315037     14.353211009174315       6.611421915324567E-18
-0.5                      -0.5                     14.449541284403672       4.3482024315765234E-63
-0.5                      -0.5                     14.220183486238533       7.200487229687913E-19
-0.5                      -0.30020176284315037     14.123853211009179       6.676880890139912E-18
-0.5                      -0.5                     13.990825688073397       6.545897481534433E-20
-0.5                      0.5                      14.220183486238533       7.855076977841338E-21
-0.5                      0.30100881421575043      14.334862385321102       7.855076977841348E-18
-0.5                      -0.09975788458821999     14.271559633027525       6.545962940509223E-18