% Model:              Cav_Hex_Unif_flux_v5.1 - Base Case.mph
% Version:            COMSOL 5.5.0.359
% Date:               Oct 26 2021, 12:22
% Dimension:          1
% Nodes:              225
% Expressions:        1
% Description:        Line graph
% x                       Height
0                         318.0104339219326
0.1699744227594688        317.7798286227036
0.3399488455189376        317.5492233234746
0.5099232682784065        317.31861802424567
0.6798976910378752        317.0880127250167
0.8498721137973441        315.6869798177721
1.019846536556813         314.2859469105275
1.1898209593162816        312.8849140032829
1.3597953820757505        311.4838810960383
1.5359683563308661        311.31976397083713
1.7121413305859816        311.15564684563594
1.888314304841097         310.9915297204348
2.064487279096213         310.8274125952336
2.242370446482322         312.63061189754114
2.4202536138684314        314.4338111998487
2.5981367812545413        316.23701050215624
2.7760199486406503        318.04020980446376
2.9539031160267593        320.465984170879
3.1317862834128687        322.8917585372942
3.3096694507989777        325.3175329037095
3.487552618185087         327.7433072701247
3.6670883549194704        331.5074034966055
3.846624091653854         335.27149972308627
4.026159828388238         339.03559594956704
4.205695565122621         342.7996921760478
4.385202489965645         347.52545480972657
4.56470941480867          352.2512174434053
4.744216339651696         356.9769800770841
4.92372326449472          361.70274271076283
5.1032301893377445        367.08119763996535
5.282737114180769         372.45965256916793
5.462244039023793         377.83810749837045
5.641750963866818         383.21656242757297
5.821229076818483         388.21883195958503
6.0007071897701465        393.2211014915971
6.180185302721811         398.2233710236092
6.3596634156734755        403.2256405556213
6.53914152862514          408.12007799107585
6.718619641576806         413.0145154265304
6.898097754528472         417.908952861985
7.077575867480137         422.80339029743953
7.2570539804318015        427.5272160750421
7.436532093383467         432.2510418526447
7.6160102063351305        436.9748676302472
7.795488319286796         441.6986934078498
7.97496643223846          446.8511113076088
8.154444545190124         452.00352920736776
8.33392265814179          457.15594710712674
8.513400771093453         462.3083650068857
8.692878884045118         467.4872512727635
8.872356996996782         472.66613753864124
9.051835109948446         477.84502380451903
9.23131322290011          483.0239100703968
9.410791335851775         487.47497731010236
9.590269448803442         491.9260445498079
9.769747561755107         496.37711178951344
9.949225674706772         500.828179029219
10.128703787658438        505.11632067765333
10.308181900610103        509.40446232608775
10.487660013561769        513.6926039745222
10.667138126513432        517.9807456229565
10.846616239465098        522.9441781971125
11.026094352416763        527.9076107712683
11.205572465368425        532.8710433454241
11.38505057832009         537.8344759195801
11.564528691271754        541.619185066949
11.744006804223421        545.4038942143179
11.923484917175088        549.1886033616868
12.102963030126752        552.9733125090556
12.282441143078415        556.0505162581322
12.461919256030079        559.1277200072088
12.641397368981742        562.2049237562856
12.820875481933408        565.2821275053622
13.000353594885073        569.438780560109
13.179831707836737        573.5954336148557
13.3593098207884          577.7520866696025
13.538787933740066        581.9087397243492
13.71826604669173         585.8618477178675
13.897744159643397        589.8149557113859
14.077222272595062        593.7680637049043
14.256700385546726        597.7211716984227
14.436178498498391        601.326760732064
14.615656611450055        604.9323497657055
14.79513472440172         608.5379387993469
14.974612837353387        612.1435278329882
15.154090950305052        615.2252937398533
15.333569063256718        618.3070596467185
15.513047176208383        621.3888255535835
15.692525289160049        624.4705914604486
15.872003402111714        627.6263018841292
16.051481515063376        630.7820123078099
16.23095962801504         633.9377227314905
16.410437740966703        637.093433155171
16.58991585391837         639.1733331804724
16.769393966870037        641.2532332057738
16.948872079821697        643.3331332310752
17.128350192773365        645.4130332563766
17.307828305725025        647.7643824371409
17.487306418676692        650.1157316179051
17.66678453162836         652.4670807986694
17.846262644580023        654.8184299794336
18.02574075753169         657.8872423950596
18.205218870483353        660.9560548106856
18.38469698343502         664.0248672263115
18.564175096386684        667.0936796419375
18.74365320933835         669.1216286536676
18.92313132229002         671.1495776653977
19.102609435241682        673.1775266771278
19.28208754819335         675.205475688858
19.461565661145013        677.47476980751
19.641043774096676        679.744063926162
19.82052188704834         682.0133580448139
20.000000000000004        684.2826521634659
20.17947811295167         686.1333452161139
20.358956225903334        687.9840382687619
20.538434338854998        689.83473132141
20.71791245180666         691.685424374058
20.89739056475833         693.554006030696
21.076868677709996        695.422587687334
21.25634679066166         697.2911693439721
21.435824903613327        699.1597510006101
21.615303016564987        701.1826579617434
21.794781129516654        703.2055649228766
21.974259242468317        705.2284718840099
22.153737355419977        707.2513788451431
22.333215468371645        709.0469729694378
22.512693581323308        710.8425670937327
22.692171694274975        712.6381612180274
22.87164980722664         714.4337553423222
23.051127920178303        716.3068771781586
23.230606033129966        718.1799990139949
23.410084146081626        720.0531208498312
23.58956225903329         721.9262426856676
23.769040371984953        724.1180323112249
23.948518484936624        726.3098219367821
24.12799659788829         728.5016115623395
24.30747471083996         730.6934011878967
24.486952823791622        731.6033616706671
24.66643093674329         732.5133221534375
24.845909049694956        733.4232826362079
25.025387162646616        734.3332431189782
25.20486527559828         735.5484145634066
25.384343388549944        736.763586007835
25.563821501501604        737.9787574522634
25.743299614453267        739.1939288966918
25.922777727404934        740.6715953886899
26.1022558403566          742.1492618806878
26.28173395330827         743.6269283726859
26.461212066259932        745.104594864684
26.6406901792116          746.4197575290978
26.82016829216326         747.7349201935115
26.999646405114923        749.0500828579252
27.179124518066587        750.3652455223389
27.358602631018254        751.7061962652294
27.53808074396992         753.0471470081201
27.71755885692158         754.3880977510107
27.89703696987325         755.7290484939012
28.076515082824912        756.7883987082538
28.25599319577658         757.8477489226063
28.435471308728246        758.9070991369588
28.61494942167991         759.9664493513113
28.794427534631577        761.2564464418526
28.97390564758324         762.546443532394
29.153383760534908        763.8364406229355
29.33286187348657         765.1264377134769
29.512339986438235        766.4782962338667
29.691818099389902        767.8301547542562
29.871296212341562        769.182013274646
30.050774325293226        770.5338717950357
30.23025243824489         771.5945707561036
30.409730551196553        772.6552697171717
30.58920866414822         773.7159686782397
30.76868677709988         774.7766676393077
30.948164890051547        775.5406701069643
31.12764300300321         776.3046725746208
31.307121115954878        777.0686750422774
31.486599228906545        777.8326775099339
31.66607734185821         778.7811176108447
31.84555545480987         779.7295577117555
32.02503356776153         780.6779978126664
32.204511680713196        781.6264379135772
32.38398979366487         782.4571546469782
32.56346790661653         783.2878713803793
32.7429460195682          784.1185881137803
32.92242413251987         784.9493048471813
33.101902245471535        785.7788541593491
33.28138035842319         786.6084034715167
33.46085847137485         787.4379527836843
33.64033658432651         788.267502095852
33.819814697278176        789.0233350687031
33.99929281022984         789.7791680415544
34.17877092318151         790.5350010144055
34.358249036133174        791.2908339872566
34.53772714908484         792.0043231842974
34.71720526203651         792.717812381338
34.89668337498817         793.4313015783788
35.076161487939835        794.1447907754196
35.255577853158705        794.9506952072185
35.43499421837758         795.7565996390174
35.61441058359646         796.5625040708163
35.79382694881533         797.3684085026152
35.973212440167806        797.9743084839714
36.15259793152028         798.5802084653276
36.33198342287277         799.1861084466839
36.511368914225244        799.79200842804
36.69075440557773         800.473233230714
36.870139896930205        801.1544580333879
37.04952538828268         801.8356828360618
37.228910879635166        802.5169076387357
37.40515174805334         803.3366143110046
37.58139261647151         804.1563209832734
37.75763348488968         804.9760276555423
37.93387435330786         805.7957343278113
38.1070376001992          806.4541068355622
38.28020084709055         807.1124793433132
38.4533640939819          807.7708518510643
38.62652734087324         808.4292243588153
38.79969058776459         808.8471615916931
38.97285383465593         809.2650988245707
39.146017081547264        809.6830360574485
39.31918032843861         810.1009732903262
39.48938524632896         810.4773234302934
39.65959016421931         810.8536735702604
39.829795082109655        811.2300237102274
40                        811.6063738501946
