% Model:              Cav_Hex_Unif_flux_v5.1 - Base Case.mph
% Version:            COMSOL 5.5.0.359
% Date:               Oct 26 2021, 12:22
% Dimension:          1
% Nodes:              529
% Expressions:        1
% Description:        Line graph
% x                       Height
0                         995.716943927808
0.1515151515151516        994.7050717096838
0.3030303030303032        993.6931994915595
0.4545454545454548        992.6813272734354
0.6060606060606065        991.7159657562721
0.7575757575757581        990.7506042391086
0.9090909090909098        989.7852427219452
1.0606060606060617        988.8413233963503
1.2121212121212133        987.8974040707552
1.363636363636365         986.9534847451602
1.5151515151515167        986.0292359854418
1.6666666666666679        985.1049872257234
1.8181818181818192        984.1807384660051
1.969696969696971         983.2465203643227
2.121212121212123         982.3123022626402
2.2727272727272747        981.3780841609578
2.4242424242424265        980.4035920355018
2.5757575757575775        979.4290999100457
2.7272727272727293        978.4546077845896
2.8787878787878807        977.423563868329
3.0303030303030325        976.3925199520683
3.1818181818181843        975.3614760358076
3.3333333333333366        974.282779532989
3.4848484848484884        973.2040830301703
3.63636363636364          972.1253865273516
3.787878787878792         971.0242463783405
3.939393939393944         969.9231062293294
4.090909090909095         968.8219660803184
4.2424242424242475        967.7292552680424
4.393939393939398         966.6365444557662
4.5454545454545485        965.54383364349
4.696969696969701         964.4468049059284
4.848484848484853         963.3497761683667
5.000000000000005         962.2527474308051
5.151515151515157         961.1481099617062
5.303030303030309         960.0434724926071
5.45454545454546          958.9388350235081
5.606060606060612         957.7891959567509
5.757575757575762         956.6395568899935
5.909090909090914         955.4899178232362
6.060606060606066         954.3321528220335
6.212121212121217         953.1743878208308
6.363636363636369         952.0166228196282
6.515151515151522         950.8513199285738
6.666666666666673         949.6860170375193
6.818181818181826         948.5207141464648
6.969696969696978         947.3810584624931
7.121212121212127         946.2414027785212
7.272727272727279         945.1017470945494
7.42424242424243          944.0019247537226
7.5757575757575815        942.9021024128956
7.727272727272733         941.8022800720687
7.878787878787886         940.735086062727
8.030303030303038         939.667892053385
8.18181818181819          938.600698044043
8.333333333333341         937.5594073686191
8.484848484848493         936.518116693195
8.636363636363644         935.4768260177709
8.787878787878794         934.472072293326
8.939393939393943         933.467318568881
9.090909090909093         932.4625648444359
9.242424242424246         931.4779128971858
9.393939393939398         930.4932609499356
9.54545454545455          929.5086090026854
9.696969696969704         928.5460204083868
9.848484848484855         927.5834318140879
10.000000000000007        926.6208432197891
10.15151515151516         925.6795517251558
10.30303030303031         924.7382602305223
10.45454545454546         923.796968735889
10.606060606060613        922.8860817763367
10.757575757575763        921.9751948167843
10.909090909090914        921.064307857232
11.060606060606066        920.1827086022042
11.212121212121215        919.3011093471762
11.363636363636367        918.4195100921481
11.51515151515152         917.562778193678
11.666666666666671        916.7060462952078
11.818181818181824        915.8493143967376
11.969696969696976        915.018247664873
12.121212121212126        914.1871809330083
12.27272727272728         913.3561142011437
12.424242424242431        912.5492617326618
12.57575757575758         911.7424092641797
12.727272727272734        910.9355567956978
12.878787878787884        910.1527449072993
13.030303030303035        909.3699330189006
13.181818181818183        908.5871211305019
13.333333333333337        907.8277265088873
13.484848484848488        907.0683318872726
13.63636363636364         906.308937265658
13.787878787878793        905.577661127396
13.939393939393943        904.846384989134
14.090909090909093        904.115108850872
14.242424242424248        903.3981044054232
14.393939393939396        902.6810999599741
14.545454545454549        901.964095514525
14.6969696969697          901.2622767937296
14.848484848484851        900.5604580729341
15.000000000000005        899.8586393521388
15.151515151515156        899.1805789315373
15.303030303030305        898.5025185109358
15.454545454545455        897.8244580903344
15.606060606060609        897.1703668444259
15.757575757575758        896.5162755985173
15.90909090909091         895.8621843526088
16.060606060606062        895.2325370143026
16.21212121212121         894.6028896759962
16.363636363636363        893.9732423376897
16.51515151515152         893.3640022813005
16.666666666666668        892.7547622249111
16.818181818181817        892.1455221685219
16.96969696969697         891.5569906952686
17.12121212121212         890.9684592220153
17.272727272727277        890.379927748762
17.424242424242426        889.8101388296892
17.575757575757578        889.2403499106164
17.727272727272727        888.6705609915435
17.87878787878788         888.1191448418527
18.030303030303028        887.5677286921618
18.181818181818176        887.0163125424709
18.33333333333333         886.48060989402
18.48484848484848         885.9449072455687
18.636363636363637        885.4092045971177
18.78787878787879         884.8893525027989
18.939393939393938        884.36950040848
19.09090909090909         883.8496483141612
19.242424242424242        883.34623594009
19.393939393939394        882.8428235660186
19.545454545454547        882.3394111919473
19.6969696969697          881.8523002629502
19.848484848484848        881.3651893339529
20                        880.8780784049557
20.151515151515152        880.4071582662567
20.3030303030303          879.9362381275577
20.454545454545453        879.4653179888587
20.606060606060606        879.0102396295127
20.757575757575758        878.5551612701666
20.90909090909091         878.1000829108206
21.060606060606062        877.6591506786111
21.21212121212121         877.2182184464016
21.363636363636363        876.777286214192
21.515151515151516        876.3506612080613
21.666666666666668        875.9240362019304
21.818181818181817        875.4974111957997
21.969696969696965        875.0859704015492
22.121212121212118        874.6745296072985
22.272727272727266        874.2630888130478
22.42424242424242         873.8666842850425
22.575757575757567        873.4702797570371
22.72727272727272         873.0738752290317
22.878787878787872        872.6915141713516
23.030303030303028        872.3091531136713
23.181818181818183        871.9267920559911
23.333333333333336        871.5580563379539
23.484848484848484        871.1893206199164
23.636363636363633        870.8205849018791
23.78787878787879         870.4636225720787
23.939393939393934        870.1066602422783
24.090909090909086        869.7496979124778
24.24242424242424         869.4052853915638
24.39393939393939         869.0608728706497
24.545454545454543        868.7164603497357
24.696969696969695        868.3820922945432
24.848484848484844        868.0477242393507
24.999999999999996        867.7133561841582
25.15151515151515         867.390966975218
25.3030303030303          867.0685777662778
25.454545454545453        866.7461885573376
25.606060606060606        866.4329486106745
25.757575757575758        866.1197086640113
25.909090909090907        865.8064687173483
26.06060606060606         865.504666104407
26.212121212121207        865.2028634914655
26.36363636363636         864.9010608785239
26.515151515151512        864.6085781242182
26.666666666666664        864.3160953699123
26.818181818181817        864.0236126156066
26.96969696969697         863.7403004028578
27.121212121212114        863.4569881901089
27.272727272727266        863.17367597736
27.424242424242422        862.9018596438784
27.575757575757567        862.6300433103967
27.727272727272716        862.358226976915
27.878787878787872        862.0969033567515
28.030303030303024        861.8355797365876
28.18181818181818         861.574256116424
28.333333333333332        861.3158485164475
28.48484848484848         861.057440916471
28.636363636363633        860.7990333164945
28.787878787878785        860.5466464788572
28.93939393939393         860.2942596412197
29.090909090909083        860.0418728035822
29.242424242424235        859.7992790747311
29.393939393939387        859.5566853458798
29.54545454545454         859.3140916170287
29.696969696969695        859.0807744654658
29.84848484848484         858.8474573139026
29.999999999999993        858.6141401623395
30.151515151515145        858.390170168358
30.303030303030294        858.1662001743765
30.454545454545446        857.9422301803951
30.6060606060606          857.7257234928043
30.757575757575747        857.5092168052133
30.9090909090909          857.2927101176225
31.060606060606055        857.0845815008363
31.212121212121204        856.8764528840499
31.363636363636356        856.6683242672634
31.51515151515151         856.4672241009769
31.66666666666666         856.2661239346901
31.818181818181817        856.0650237684034
31.96969696969697         855.871127422192
32.12121212121211         855.6772310759804
32.27272727272726         855.4833347297689
32.42424242424241         855.2958046224076
32.575757575757564        855.108274515046
32.72727272727272         854.9207444076844
32.87878787878787         854.7395368454609
33.030303030303024        854.5583292832371
33.18181818181817         854.3771217210134
33.33333333333333         854.2019261101889
33.48484848484848         854.0267304993642
33.63636363636363         853.8515348885397
33.78787878787878         853.6826047981729
33.93939393939394         853.5136747078059
34.090909090909086        853.344744617439
34.24242424242424         853.1817229463095
34.39393939393939         853.0187012751798
34.54545454545455         852.8556796040501
34.696969696969695        852.6983730247136
34.84848484848485         852.541066445377
35                        852.3837598660405
35.151515151515156        852.2322916878398
35.3030303030303          852.0808235096391
35.454545454545446        851.9293553314385
35.6060606060606          851.7831431146121
35.757575757575744        851.6369308977855
35.9090909090909          851.4907186809589
36.060606060606055        851.349653304213
36.21212121212121         851.2085879274669
36.36363636363636         851.0675225507208
36.515151515151516        850.9309060348065
36.66666666666666         850.7942895188921
36.81818181818181         850.6576730029777
36.96969696969696         850.5259794267242
37.12121212121212         850.3942858504705
37.27272727272727         850.2625922742168
37.42424242424242         850.1349734369643
37.57575757575758         850.0073545997117
37.72727272727273         849.8797357624592
37.878787878787875        849.7561191130145
38.030303030303024        849.6325024635697
38.18181818181817         849.508885814125
38.33333333333332         849.3895389337798
38.48484848484848         849.2701920534344
38.636363636363626        849.1508451730889
38.787878787878775        849.0357660126517
38.93939393939392         848.9206868522143
39.09090909090907         848.805607691777
39.24242424242423         848.6942171108412
39.393939393939384        848.5828265299052
39.54545454545454         848.4714359489693
39.69696969696969         848.364065636125
39.84848484848483         848.2566953232806
39.99999999999998         848.1493250104363
40.151515151515135        848.0456808220935
40.30303030303028         847.9420366337505
40.45454545454544         847.8383924454076
40.60606060606059         847.7384821681521
40.757575757575744        847.6385718908964
40.90909090909089         847.5386616136407
41.06060606060605         847.4423018969555
41.2121212121212          847.3459421802703
41.36363636363635         847.2495824635852
41.5151515151515          847.1565878297226
41.66666666666666         847.06359319586
41.81818181818181         846.9705985619973
41.96969696969696         846.880993750144
42.12121212121211         846.7913889382903
42.27272727272725         846.7017841264368
42.42424242424241         846.6152987165513
42.57575757575755         846.5288133066656
42.727272727272705        846.4423278967801
42.87878787878786         846.3589101767697
43.03030303030302         846.2754924567591
43.181818181818166        846.1920747367486
43.33333333333332         846.1120620985275
43.48484848484846         846.0320494603063
43.63636363636361         845.9520368220852
43.78787878787877         845.8748012078904
43.939393939393916        845.7975655936955
44.09090909090908         845.7203299795007
44.24242424242423         845.6460587400148
44.39393939393938         845.5717875005289
44.54545454545452         845.497516261043
44.69696969696968         845.4264692763071
44.84848484848482         845.3554222915711
44.99999999999998         845.2843753068352
45.15151515151513         845.2148902300755
45.303030303030276        845.1454051533157
45.454545454545425        845.0759200765559
45.60606060606059         845.0082871846865
45.75757575757574         844.940654292817
45.90909090909089         844.8730214009477
46.06060606060605         844.8080159816026
46.21212121212119         844.7430105622574
46.36363636363634         844.6780051429123
46.515151515151494        844.615640370132
46.66666666666665         844.5532755973516
46.818181818181806        844.4909108245712
46.96969696969696         844.4307831672453
47.1212121212121          844.3706555099192
47.27272727272726         844.3105278525932
47.42424242424241         844.252734972043
47.57575757575756         844.1949420914925
47.727272727272705        844.1371492109421
47.878787878787854        844.0814287611482
48.03030303030301         844.0257083113543
48.18181818181815         843.9699878615603
48.33333333333331         843.9163966415715
48.48484848484845         843.8628054215825
48.636363636363605        843.8092142015936
48.78787878787876         843.7574712935436
48.93939393939392         843.7057283854934
49.09090909090907         843.6539854774433
49.24242424242423         843.6041796843722
49.39393939393936         843.5543738913009
49.54545454545452         843.5045680982297
49.69696969696967         843.456752130665
49.84848484848482         843.4089361631002
49.99999999999998         843.3611201955354
50.15151515151514         843.3150139921979
50.30303030303029         843.2689077888604
50.45454545454544         843.2228015855228
50.60606060606059         843.1785155194214
50.75757575757573         843.1342294533199
50.90909090909088         843.0899433872185
51.06060606060603         843.0474793077968
51.212121212121176        843.0050152283752
51.363636363636324        842.9625511489536
51.51515151515148         842.9216435610903
51.66666666666662         842.8807359732269
51.818181818181785        842.8398283853636
51.96969696969693         842.8001738863552
52.12121212121208         842.7605193873468
52.272727272727245        842.7208648883384
52.424242424242394        842.6818884308207
52.57575757575754         842.6429119733028
52.7272727272727          842.603935515785
52.87878787878785         842.5649108630922
53.030303030302996        842.5258862103993
53.181818181818144        842.4868615577064
53.3333333333333          842.4492438211644
53.48484848484845         842.4116260846221
53.6363636363636          842.3740083480799
53.78787878787876         842.3377982749447
53.9393939393939          842.3015882018093
54.09090909090906         842.265378128674
54.242424242424214        842.2305442061772
54.39393939393936         842.1957102836802
54.54545454545452         842.1608763611833
54.69696969696967         842.1274758087751
54.848484848484816        842.0940752563666
54.999999999999964        842.0606747039582
55.15151515151512         842.0284955890511
55.30303030303027         841.9963164741439
55.45454545454542         841.9641373592368
55.60606060606057         841.9332025132572
55.75757575757573         841.9022676672777
55.90909090909088         841.8713328212981
56.060606060606034        841.8416544268993
56.21212121212118         841.8119760325004
56.363636363636346        841.7822976381016
56.5151515151515          841.7536579426231
56.66666666666665         841.7250182471446
56.818181818181806        841.6963785516662
56.969696969696955        841.6688654886456
57.1212121212121          841.6413524256249
57.272727272727245        841.6138393626042
57.42424242424241         841.5873327812967
57.57575757575754         841.5608261999892
57.7272727272727          841.5343196186817
57.87878787878785         841.5088530226866
58.030303030302996        841.4833864266913
58.181818181818144        841.457919830696
58.33333333333331         841.4334173286055
58.484848484848456        841.4089148265148
58.63636363636362         841.3844123244241
58.787878787878775        841.360849617036
58.939393939393916        841.3372869096478
59.09090909090907         841.3137242022596
59.24242424242422         841.2910770638886
59.39393939393938         841.2684299255175
59.545454545454525        841.2457827871464
59.69696969696968         841.2240222963618
59.84848484848482         841.202261805577
59.99999999999997         841.1805013147923
60.151515151515135        841.159640062585
60.30303030303029         841.1387788103776
60.45454545454544         841.1179175581702
60.606060606060595        841.0978997708136
60.75757575757574         841.0778819834567
60.90909090909089         841.0578641960998
61.06060606060605         841.0386973087323
61.212121212121204        841.0195304213646
61.36363636363636         841.000363533997
61.51515151515151         840.9819828694414
61.66666666666666         840.9636022048857
61.818181818181806        840.94522154033
61.96969696969697         840.9276226311565
62.12121212121212         840.910023721983
62.27272727272729         840.8924248128095
62.424242424242436        840.8755732791561
62.57575757575758         840.8587217455025
62.72727272727273         840.841870211849
62.8787878787879          840.8257318477631
63.030303030303045        840.809593483677
63.1818181818182          840.7934551195908
63.33333333333335         840.7780161574763
63.484848484848506        840.7625771953616
63.636363636363654        840.7471382332469
63.78787878787881         840.7323788256884
63.939393939393966        840.7176194181297
64.09090909090912         840.7028600105712
64.24242424242426         840.6887976063542
64.3939393939394          840.6747352021371
64.54545454545456         840.6606727979199
64.69696969696972         840.6472702654434
64.84848484848486         840.6338677329667
65.00000000000001         840.6204652004901
65.15151515151517         840.6076336048886
65.30303030303033         840.5948020092872
65.45454545454547         840.5819704136857
65.60606060606062         840.5697826654508
65.75757575757576         840.5575949172159
65.90909090909092         840.545407168981
66.06060606060608         840.5337759727123
66.21212121212122         840.5221447764434
66.36363636363637         840.5105135801745
66.51515151515153         840.4994675900202
66.66666666666669         840.4884215998659
66.81818181818183         840.4773756097117
66.96969696969698         840.4668729556662
67.12121212121212         840.4563703016206
67.27272727272728         840.4458676475751
67.42424242424244         840.4359039601012
67.57575757575759         840.425940272627
67.72727272727275         840.415976585153
67.8787878787879          840.4065378518868
68.03030303030303         840.3970991186204
68.18181818181819         840.3876603853541
68.33333333333334         840.3787158946369
68.4848484848485          840.3697714039196
68.63636363636365         840.3608269132022
68.7878787878788          840.3523820452907
68.93939393939395         840.3439371773791
69.09090909090911         840.3354923094676
69.24242424242426         840.3275208799075
69.3939393939394          840.3195494503473
69.54545454545456         840.311578020787
69.69696969696972         840.30405900618
69.84848484848487         840.2965399915727
70.00000000000001         840.2890209769655
70.15151515151517         840.2819577208597
70.30303030303031         840.2748944647539
70.45454545454547         840.2678312086481
70.60606060606062         840.2611897833231
70.75757575757576         840.2545483579979
70.90909090909092         840.2479069326728
71.06060606060608         840.2416871491473
71.21212121212123         840.2354673656217
71.36363636363639         840.2292475820963
71.51515151515153         840.2235081982591
71.66666666666669         840.2177688144219
71.81818181818183         840.2120294305847
71.96969696969698         840.2066391228907
72.12121212121212         840.2012488151965
72.27272727272728         840.1958585075024
72.42424242424245         840.1908749080446
72.57575757575759         840.1858913085867
72.72727272727273         840.180907709129
72.8787878787879          840.1762757258673
73.03030303030305         840.1716437426056
73.1818181818182          840.167011759344
73.33333333333334         840.1627527582991
73.48484848484848         840.1584937572542
73.63636363636364         840.1542347562093
73.7878787878788          840.1503094550689
73.93939393939394         840.1463841539281
74.0909090909091          840.1424588527875
74.24242424242425         840.1388718687576
74.3939393939394          840.1352848847276
74.54545454545455         840.1316979006976
74.6969696969697          840.1284377237938
74.84848484848484         840.12517754689
75                        840.1219173699861
75.15151515151516         840.1189782815152
75.3030303030303          840.1160391930442
75.45454545454545         840.1131001045733
75.60606060606061         840.1104811054387
75.75757575757576         840.1078621063041
75.9090909090909          840.1052431071695
76.06060606060606         840.102928625874
76.21212121212122         840.1006141445786
76.36363636363637         840.0982996632831
76.51515151515153         840.0962925835238
76.66666666666669         840.0942855037644
76.81818181818184         840.0922784240049
76.969696969697           840.0905663861387
77.12121212121214         840.0888543482722
77.27272727272728         840.0871423104059
77.42424242424242         840.0857211534175
77.57575757575758         840.084299996429
77.72727272727272         840.0828788394406
77.87878787878788         840.0817412563641
78.03030303030303         840.0806036732877
78.1818181818182          840.0794660902112
78.33333333333336         840.0785880626321
78.4848484848485          840.0777100350529
78.63636363636365         840.0768320074737
78.78787878787881         840.0762031254126
78.93939393939395         840.0755742433512
79.0909090909091          840.0749453612898
79.24242424242425         840.07459538835
79.39393939393939         840.07424541541
79.54545454545453         840.0738954424701
79.69696969696969         840.0737649252886
79.84848484848483         840.0736344081071
80                        840.0735038909255
