% Model:              Cav_Hex_Unif_flux_v5.1 - Base Case.mph
% Version:            COMSOL 5.5.0.359
% Date:               Oct 26 2021, 12:23
% Dimension:          1
% Nodes:              561
% Expressions:        1
% Description:        Line graph
% x                       Height
0                         1000.5856683482912
0.28571428571428514       998.6060055215529
0.5714285714285703        996.6263426948146
0.8571428571428555        994.8071654620969
1.1428571428571408        992.9879882293793
1.4285714285714257        991.2134786873605
1.7142857142857109        989.4389691453417
1.9999999999999958        987.6556613286756
2.2857142857142807        985.8723535120095
2.571428571428566         983.9903658077553
2.8571428571428505        982.1083781035013
3.1428571428571357        980.1038743142248
3.428571428571421         978.0993705249482
3.7142857142857064        975.99657566529
3.9999999999999916        973.8937808056319
4.285714285714277         971.8143711638149
4.571428571428562         969.734961521998
4.857142857142848         967.6689654811664
5.142857142857134         965.6029694403347
5.428571428571419         963.4516150507418
5.714285714285704         961.3002606611487
5.999999999999988         959.0940466909726
6.285714285714272         956.8878327207966
6.571428571428558         954.6697749190657
6.8571428571428426        952.451717117335
7.142857142857128         950.2917093794081
7.428571428571414         948.1317016414812
7.714285714285699         946.0549210043876
7.999999999999985         943.9781403672939
8.285714285714269         941.9709272205473
8.571428571428555         939.9637140738008
8.857142857142838         938.0291747583541
9.142857142857123         936.0946354429074
9.42857142857141          934.210612022556
9.714285714285696         932.3265886022045
9.99999999999998          930.495749452615
10.285714285714265        928.6649103030254
10.571428571428552        926.9134309562448
10.857142857142836        925.1619516094644
11.142857142857123        923.4686052766328
11.42857142857141         921.7752589438014
11.714285714285694        920.1518215330723
11.999999999999977        918.528384122343
12.285714285714262        916.970217194391
12.571428571428545        915.412050266439
12.85714285714283         913.9105478464801
13.142857142857114        912.4090454265212
13.4285714285714          910.96928978211
13.714285714285687        909.5295341376988
13.999999999999973        908.1582616390376
14.285714285714258        906.7869891403765
14.571428571428545        905.4543916427654
14.857142857142831        904.1217941451541
15.142857142857114        902.8379206014852
15.428571428571395        901.5540470578161
15.71428571428568         900.3293642493884
15.99999999999997         899.1046814409608
16.285714285714256        897.9377655908327
16.57142857142854         896.7708497407045
16.85714285714283         895.6592834612956
17.14285714285711         894.5477171818866
17.428571428571395        893.4845695085328
17.71428571428568         892.421421835179
17.999999999999964        891.4016558700393
18.28571428571425         890.3818899048997
18.571428571428537        889.4006708173592
18.857142857142822        888.4194517298188
19.142857142857107        887.480193888284
19.428571428571388        886.5409360467494
19.714285714285673        885.6415923669083
19.999999999999957        884.7422486870671
20.285714285714242        883.8808341655019
20.57142857142853         883.0194196439367
20.85714285714281         882.1985466894807
21.142857142857096        881.3776737350249
21.42857142857138         880.5880730234048
21.714285714285666        879.7984723117848
21.999999999999954        879.0443200838381
22.285714285714242        878.2901678558914
22.571428571428523        877.5707249798431
22.857142857142804        876.8512821037949
23.142857142857093        876.1646510654211
23.42857142857138         875.4780200270474
23.714285714285666        874.8170365549906
23.99999999999995         874.1560530829338
24.28571428571424         873.5233195930076
24.571428571428523        872.8905861030814
24.857142857142808        872.2825617165754
25.142857142857093        871.6745373300693
25.428571428571377        871.0896897850032
25.71428571428566         870.5048422399371
25.99999999999994         869.9463187764211
26.285714285714224        869.3877953129049
26.57142857142851         868.8514641071779
26.857142857142797        868.3151329014507
27.142857142857082        867.8024486474817
27.428571428571367        867.2897643935125
27.714285714285655        866.8009508440995
27.999999999999943        866.3121372946864
28.285714285714224        865.8392921442853
28.571428571428505        865.3664469938842
28.85714285714279         864.9071597201503
29.14285714285708         864.4478724464163
29.428571428571367        864.0112403097801
29.71428571428565         863.5746081731438
29.999999999999936        863.1592190640654
30.28571428571422         862.743829954987
30.571428571428505        862.3474111518364
30.85714285714279         861.9509923486858
31.142857142857075        861.5730575431695
31.42857142857136         861.1951227376533
31.714285714285648        860.833335033903
31.999999999999932        860.4715473301527
32.28571428571422         860.126795128411
32.571428571428505        859.7820429266693
32.85714285714279         859.4508690422606
33.14285714285707         859.1196951578519
33.42857142857136         858.8025631956634
33.714285714285644        858.4854312334749
33.99999999999992         858.1823962787461
34.28571428571421         857.8793613240173
34.57142857142849         857.5899093160433
34.85714285714278         857.3004573080693
35.14285714285707         857.023321509705
35.42857142857135         856.7461857113407
35.714285714285644        856.4825078558081
35.99999999999993         856.2188300002756
36.285714285714214        855.965604411987
36.57142857142849         855.7123788236983
36.857142857142776        855.4697699003057
37.14285714285706         855.2271609769131
37.42857142857135         854.9938257635254
37.714285714285644        854.7604905501378
37.99999999999992         854.5368115379915
38.2857142857142          854.3131325258453
38.57142857142849         854.0985465352335
38.857142857142776        853.8839605446218
39.14285714285705         853.6785389163579
39.42857142857133         853.473117288094
39.714285714285616        853.2769220664964
39.99999999999991         853.0807268448987
40.28571428571419         852.8924621405613
40.571428571428484        852.7041974362238
40.85714285714276         852.5245636273926
41.142857142857046        852.3449298185612
41.42857142857133         852.1730774904183
41.71428571428561         852.0012251622755
41.9999999999999          851.8373887902546
42.285714285714185        851.6735524182336
42.57142857142847         851.5170152864206
42.857142857142755        851.3604781546076
43.14285714285704         851.2117014257541
43.42857142857132         851.0629246969006
43.71428571428561         850.920709700499
43.99999999999989         850.7784947040973
44.28571428571418         850.6425328753701
44.57142857142846         850.506571046643
44.85714285714274         850.377015817401
45.14285714285702         850.247460588159
45.4285714285713          850.1235933359401
45.714285714285595        849.9997260837212
45.99999999999988         849.8812254450322
46.285714285714164        849.7627248063433
46.57142857142844         849.6492955387134
46.85714285714272         849.5358662710835
47.14285714285701         849.4274087317693
47.4285714285713          849.3189511924552
47.714285714285595        849.2151575206578
47.99999999999989         849.1113638488605
48.28571428571417         849.0118620241037
48.57142857142844         848.9123601993468
48.857142857142726        848.8172560916021
49.14285714285701         848.7221519838573
49.428571428571296        848.6311802124803
49.71428571428558         848.5402084411035
49.99999999999986         848.4533033688581
50.285714285714135        848.3663982966127
50.57142857142842         848.2838052592917
50.85714285714271         848.2012122219706
51.14285714285699         848.1221454940885
51.428571428571274        848.0430787662063
51.71428571428556         847.9679141568854
51.99999999999985         847.8927495475646
52.28571428571413         847.8198548244222
52.57142857142841         847.7469601012798
52.857142857142705        847.6750292388117
53.142857142857           847.6030983763436
53.42857142857128         847.5332059502598
53.71428571428556         847.4633135241759
53.99999999999984         847.3963206665624
54.285714285714114        847.3293278089487
54.57142857142841         847.2657872700227
54.85714285714271         847.2022467310966
55.14285714285698         847.1413304618453
55.428571428571246        847.080414192594
55.71428571428553         847.0222271734506
55.999999999999815        846.964040154307
56.28571428571411         846.9084436311578
56.5714285714284          846.8528471080086
56.85714285714268         846.7995961479976
57.14285714285696         846.7463451879865
57.42857142857125         846.6953585449854
57.714285714285545        846.6443719019843
57.99999999999982         846.595794517366
58.2857142857141          846.5472171327477
58.571428571428385        846.5006904356644
58.85714285714266         846.454163738581
59.142857142856954        846.4097278205026
59.42857142857124         846.3652919024241
59.71428571428552         846.3228312829985
59.9999999999998          846.2803706635729
60.285714285714086        846.2396843491608
60.57142857142837         846.1989980347488
60.85714285714265         846.1601028151797
61.14285714285693         846.1212075956106
61.42857142857122         846.0840571183737
61.7142857142855          846.0469066411367
61.99999999999978         846.0113470066441
62.285714285714064        845.9757873721514
62.57142857142835         845.9416843246806
62.85714285714264         845.9075812772099
63.14285714285692         845.8748719066838
63.42857142857121         845.8421625361576
63.71428571428549         845.8108828034551
63.999999999999766        845.7796030707527
64.28571428571405         845.749568222589
64.57142857142836         845.7195333744254
64.85714285714265         845.6908816490588
65.14285714285693         845.6622299236922
65.4285714285712          845.6348646801803
65.71428571428547         845.6074994366685
65.99999999999976         845.5812868840957
66.28571428571405         845.5550743315229
66.57142857142833         845.5300314108995
66.8571428571426          845.5049884902762
67.14285714285688         845.4809552304953
67.42857142857116         845.4569219707143
67.71428571428545         845.4340101128054
67.99999999999973         845.4110982548964
68.28571428571402         845.3891266918906
68.57142857142831         845.3671551288847
68.8571428571426          845.3461129659256
69.1428571428569          845.3250708029665
69.42857142857119         845.3048874058723
69.71428571428548         845.2847040087779
69.99999999999976         845.2653599950478
70.28571428571402         845.2460159813177
70.57142857142831         845.2274353964408
70.85714285714259         845.2088548115639
71.14285714285687         845.1911515722442
71.42857142857116         845.1734483329244
71.71428571428545         845.1565349898618
71.99999999999973         845.1396216467992
72.28571428571401         845.1234272148411
72.57142857142829         845.1072327828828
72.85714285714256         845.0917583065569
73.14285714285685         845.0762838302311
73.42857142857115         845.0614730715174
73.71428571428544         845.0466623128037
73.99999999999973         845.0324792211273
74.28571428571401         845.018296129451
74.5714285714283          845.0047665830823
74.85714285714259         844.9912370367136
75.14285714285688         844.9782492086347
75.42857142857117         844.9652613805557
75.71428571428545         844.9528526454999
75.99999999999974         844.940443910444
76.28571428571404         844.9285337851002
76.57142857142831         844.9166236597563
76.85714285714259         844.905256436407
77.14285714285688         844.8938892130577
77.42857142857117         844.8829926600436
77.71428571428545         844.8720961070294
77.99999999999973         844.861677529705
78.28571428571402         844.8512589523807
78.57142857142831         844.8413149410474
78.8571428571426          844.8313709297141
79.1428571428569          844.8218177984852
79.42857142857119         844.8122646672562
79.71428571428547         844.8031199343254
79.99999999999974         844.7939752013947
80.28571428571404         844.7851808507019
80.57142857142833         844.776386500009
80.85714285714262         844.7679638275208
81.14285714285691         844.7595411550326
81.42857142857119         844.7514507025583
81.71428571428545         844.743360250084
81.99999999999974         844.7356208293185
82.28571428571402         844.7278814085529
82.57142857142833         844.7204610123931
82.85714285714262         844.7130406162335
83.14285714285691         844.7059052204752
83.42857142857119         844.6987698247169
83.71428571428547         844.6919278171515
83.99999999999976         844.685085809586
84.28571428571405         844.6785225060382
84.57142857142833         844.6719592024904
84.8571428571426          844.6656800299564
85.14285714285688         844.6594008574225
85.42857142857119         844.6533911476254
85.71428571428548         844.6473814378281
85.99999999999977         844.6416564806846
86.28571428571405         844.635931523541
86.57142857142834         844.6304371298331
86.85714285714263         844.6249427361253
87.14285714285691         844.6196896736064
87.4285714285712          844.6144366110876
87.7142857142855          844.6093938384438
87.99999999999977         844.6043510657998
88.28571428571406         844.5995355542741
88.57142857142836         844.5947200427485
88.85714285714263         844.5900786223141
89.1428571428569          844.5854372018797
89.42857142857119         844.5809991213887
89.71428571428548         844.5765610408978
89.99999999999977         844.5723017510844
90.28571428571408         844.568042461271
90.57142857142836         844.5639494681543
90.85714285714263         844.5598564750376
91.14285714285691         844.5559339529586
91.4285714285712          844.5520114308797
91.7142857142855          844.5482504530914
91.99999999999979         844.5444894753031
92.28571428571408         844.5408800044178
92.57142857142838         844.5372705335325
92.85714285714266         844.5338154334978
93.14285714285693         844.5303603334631
93.42857142857122         844.5270307323076
93.7142857142855          844.5237011311519
93.99999999999979         844.5205046009908
94.28571428571408         844.5173080708295
94.57142857142836         844.5142316844056
94.85714285714265         844.5111552979816
95.14285714285694         844.5082050937946
95.42857142857122         844.5052548896075
95.71428571428551         844.502421369421
95.9999999999998          844.4995878492343
96.28571428571409         844.4968576137471
96.57142857142838         844.49412737826
96.85714285714268         844.4915052458018
97.14285714285695         844.4888831133437
97.42857142857126         844.4863575677734
97.71428571428555         844.483832022203
97.99999999999982         844.4814043094982
98.28571428571409         844.4789765967932
98.5714285714284          844.4766418061648
98.85714285714269         844.4743070155364
99.14285714285697         844.4720723691258
99.42857142857125         844.4698377227153
99.71428571428554         844.4676919664247
99.99999999999983         844.4655462101341
100.28571428571412        844.463481639017
100.57142857142841        844.4614170678999
100.85714285714268        844.4594350156087
101.14285714285695        844.4574529633177
101.42857142857123        844.455544148981
101.71428571428552        844.4536353346442
101.99999999999982        844.4517998323523
102.28571428571409        844.4499643300604
102.57142857142838        844.4482005512889
102.85714285714268        844.4464367725172
103.14285714285695        844.4447353267678
103.42857142857125        844.4430338810186
103.71428571428554        844.4413977502053
103.99999999999984        844.439761619392
104.28571428571412        844.4381828200667
104.57142857142838        844.4366040207415
104.85714285714268        844.435083340056
105.14285714285697        844.4335626593708
105.42857142857126        844.4320962283825
105.71428571428557        844.4306297973942
105.99999999999984        844.4292192814378
106.2857142857141         844.4278087654815
106.5714285714284         844.4264463316225
106.85714285714269        844.4250838977636
107.14285714285698        844.4237666324855
107.42857142857126        844.4224493672073
107.71428571428555        844.4211787963782
107.99999999999984        844.419908225549
108.28571428571412        844.4186788119687
108.5714285714284         844.4174493983884
108.8571428571427         844.4162647709225
109.142857142857          844.4150801434564
109.42857142857127        844.4139307791916
109.71428571428555        844.4127814149267
109.99999999999984        844.4116737004031
110.28571428571415        844.4105659858795
110.57142857142843        844.4094954443297
110.8571428571427         844.4084249027799
111.14285714285701        844.407389415959
111.4285714285713         844.4063539291379
111.7142857142856         844.4053541077358
111.99999999999989        844.4043542863336
112.28571428571418        844.4033868689985
112.57142857142846        844.4024194516633
112.85714285714273        844.4014840729819
113.14285714285703        844.4005486943005
113.42857142857132        844.3996457499642
113.71428571428561        844.3987428056279
113.99999999999989        844.3978660892731
114.28571428571418        844.3969893729181
114.57142857142846        844.3961412283832
114.85714285714273        844.3952930838481
115.14285714285703        844.3944691587405
115.42857142857132        844.393645233633
115.71428571428561        844.392847075324
115.9999999999999         844.3920489170149
116.28571428571419        844.3912733091208
116.57142857142848        844.3904977012269
116.85714285714278        844.3897450105792
117.14285714285705        844.3889923199316
117.42857142857133        844.3882632917287
117.71428571428561        844.3875342635256
117.99999999999989        844.3868264432713
118.28571428571418        844.3861186230171
118.57142857142847        844.3854311734374
118.85714285714278        844.3847437238577
119.14285714285705        844.384076097297
119.42857142857133        844.3834084707363
119.71428571428562        844.3827617713152
119.99999999999991        844.3821150718941
120.28571428571419        844.3814861830215
120.57142857142847        844.3808572941488
120.85714285714276        844.3802480584807
121.14285714285705        844.3796388228126
121.42857142857135        844.379046938689
121.71428571428564        844.3784550545654
121.99999999999991        844.3778795684059
122.28571428571419        844.3773040822464
122.57142857142848        844.3767446963941
122.85714285714278        844.3761853105417
123.14285714285707        844.3756401002971
123.42857142857136        844.3750948900525
123.71428571428564        844.3745648197491
123.99999999999991        844.3740347494459
124.28571428571422        844.3735177162941
124.57142857142851        844.3730006831424
124.85714285714278        844.3724987298635
125.14285714285705        844.3719967765845
125.42857142857136        844.3715066977302
125.71428571428567        844.3710166188758
125.99999999999994        844.3705392140644
126.28571428571419        844.3700618092528
126.5714285714285         844.3695965578017
126.8571428571428         844.3691313063506
127.14285714285705        844.3686781368153
127.42857142857133        844.36822496728
127.71428571428561        844.3677829094981
127.99999999999991        844.3673408517163
128.28571428571422        844.3669107326779
128.5714285714285         844.3664806136394
128.85714285714278        844.3660612315169
129.14285714285708        844.3656418493945
129.4285714285714         844.3652322316
129.71428571428567        844.3648226138055
129.99999999999994        844.364423543487
130.2857142857142         844.3640244731686
130.5714285714285         844.3636348226372
130.85714285714278        844.3632451721058
131.14285714285705        844.3628647325638
131.42857142857136        844.3624842930219
131.71428571428567        844.3621127307247
131.99999999999994        844.3617411684273
132.28571428571422        844.3613793341609
132.57142857142853        844.3610174998945
132.8571428571428         844.3606647102329
133.14285714285708        844.3603119205713
133.4285714285714         844.3599680877387
133.71428571428567        844.359624254906
133.99999999999994        844.3592887031683
134.28571428571422        844.3589531514307
134.5714285714285         844.3586265666173
134.85714285714278        844.358299981804
135.14285714285705        844.3579814521327
135.42857142857136        844.3576629224613
135.71428571428567        844.3573521779786
135.99999999999994        844.357041433496
136.28571428571422        844.3567395385996
136.5714285714285         844.3564376437033
136.85714285714278        844.3561430431191
137.14285714285708        844.3558484425348
137.4285714285714         844.3555616506283
137.71428571428567        844.3552748587218
137.99999999999994        844.3549949884646
138.28571428571422        844.3547151182072
138.57142857142853        844.3544426700557
138.85714285714283        844.3541702219043
139.1428571428571         844.3539044675535
139.4285714285714         844.3536387132028
139.7142857142857         844.3533809153578
140                       844.3531231175128
140.28571428571428        844.3528719960575
140.57142857142856        844.3526208746022
140.85714285714286        844.3523767120862
141.14285714285714        844.3521325495703
141.42857142857142        844.3518959855462
141.71428571428572        844.351659421522
142                       844.3514297639099
142.28571428571428        844.3512001062978
142.57142857142853        844.3509775871979
142.85714285714278        844.350755068098
143.14285714285708        844.3505395277681
143.4285714285714         844.3503239874382
143.7142857142857         844.350115831628
143.99999999999997        844.349907675818
144.28571428571425        844.3497062217257
144.5714285714285         844.3495047676332
144.8571428571428         844.3493096660677
145.1428571428571         844.3491145645023
145.42857142857142        844.3489263625297
145.71428571428572        844.3487381605571
145.99999999999997        844.3485563701037
146.28571428571425        844.3483745796502
146.57142857142853        844.3482003988616
146.8571428571428         844.3480262180731
147.14285714285708        844.3478585956834
147.4285714285714         844.3476909732938
147.71428571428567        844.3475299949256
147.99999999999994        844.3473690165574
148.28571428571425        844.3472151261899
148.57142857142853        844.3470612358225
148.8571428571428         844.3469140680456
149.1428571428571         844.3467669002688
149.42857142857142        844.3466263707426
149.71428571428572        844.3464858412162
149.99999999999997        844.3463533027464
150.28571428571422        844.3462207642766
150.57142857142853        844.346094808617
150.85714285714283        844.3459688529572
151.1428571428571         844.3458501319426
151.4285714285714         844.3457314109279
151.7142857142857         844.345619370873
151.99999999999997        844.3455073308181
152.28571428571425        844.3454023857541
152.57142857142856        844.3452974406902
152.85714285714283        844.3451993887443
153.1428571428571         844.3451013367985
153.42857142857142        844.3450110069907
153.7142857142857         844.3449206771829
153.99999999999997        844.3448374840841
154.28571428571428        844.3447542909853
154.57142857142856        844.3446782830754
154.85714285714283        844.3446022751654
155.14285714285714        844.3445341055915
155.42857142857142        844.3444659360176
155.7142857142857         844.3444050143128
156                       844.344344092608
156.28571428571428        844.3442918964724
156.57142857142856        844.344239700337
156.85714285714286        844.3441947576547
157.14285714285717        844.3441498149724
157.42857142857142        844.3441125827576
157.7142857142857         844.3440753505428
157.99999999999997        844.3440459371272
158.28571428571428        844.3440165237118
158.57142857142858        844.3439950663246
158.85714285714286        844.3439736089374
159.14285714285714        844.3439609056142
159.42857142857142        844.3439482022909
159.7142857142857         844.3439434645462
160                       844.3439387268015
