% Model:              Cav_Hex_Unif_flux_v5.1.1 - Lin. Distn.mph
% Version:            COMSOL 5.5.0.359
% Date:               Dec 9 2021, 14:48
% Dimension:          1
% Nodes:              388
% Expressions:        6
% Description:        Line graph
% x                       Height                   Height                   Height                   Height                   Height                   Height
0                         14645.119300093866       21780.735080299193       21780.735080299193       21780.85420775658        21780.85420775658        21780.85420775658
0.1291989664082689        14645.119300093866       21780.735080299193       21780.735080299193       21780.85420775658        21780.85420775658        21780.85420775658
0.2583979328165378        14645.119300093866       21780.735080299193       21780.735080299193       21780.85420775658        21780.85420775658        21780.85420775658
0.38759689922480667       28682.352613598596       19861.244109359635       20815.277244006305       20819.943410743144       20819.943410743144       20819.943410743144
0.5167958656330756        42719.585927103326       17941.753138420077       19849.819407713418       19859.032613729712       19859.032613729712       19859.032613729712
0.6459948320413443        42719.585927103326       17941.753138420077       19849.819407713418       19859.032613729712       19859.032613729712       19859.032613729712
0.7751937984496132        38604.06392509013        16394.85979645321        18363.250223093804       18381.109882045137       18381.109882045137       18381.109882045137
0.9043927648578822        34488.54192307694        14847.966454486344       16876.681038474188       16903.18715036056        16903.18715036056        16903.18715036056
1.0335917312661511        34488.54192307694        14847.966454486344       16876.681038474188       16903.18715036056        16903.18715036056        16903.18715036056
1.16279069767442          26111.464629663853       16235.399713405248       18651.46963578274        18792.243805597594       18793.758478177733       18793.758478177733
1.291989664082689         17734.38733625077        17622.83297232415        20426.258233091292       20681.30046083463        20684.32980599491        20684.32980599491
1.4211886304909576        17734.38733625077        17622.83297232415        20426.258233091292       20681.30046083463        20684.32980599491        20684.32980599491
1.5503875968992265        16396.08721131053        19544.747706275215       22043.505933703855       22247.150760773744       22248.665433353883       22248.665433353883
1.6795865633074953        15057.78708637029        21466.662440226275       23660.753634316417       23813.001060712857       23813.001060712857       23813.001060712857
1.8087855297157642        15057.78708637029        21466.662440226275       23660.753634316417       23813.001060712857       23813.001060712857       23813.001060712857
1.937984496124033         25862.35945028934        24208.289724672395       26055.938865096192       26132.072370086793       26132.075145242445       26132.075145242445
2.0671834625323022        36666.93181420839        26949.917009118515       28451.124095875966       28451.14367946073        28451.149229772032       28451.149229772032
2.1963824289405713        36666.93181420839        26949.917009118515       28451.124095875966       28451.14367946073        28451.149229772032       28451.149229772032
2.32558139534884          35763.676619529935       23904.177502818537       26833.863003639224       26837.48711341926        26837.493314693005       26837.493314693005
2.4547803617571087        34860.42142485148        20858.43799651856        25216.601911402482       25223.830547377795       25223.837399613978       25223.837399613978
2.583979328165377         34860.42142485148        20858.43799651856        25216.601911402482       25223.830547377795       25223.837399613978       25223.837399613978
2.7131782945736456        42457.879115057876       24806.436539501425       28568.170795396807       28576.371611341838       28576.38171605128        28576.38171605128
2.842377260981915         50055.336805264276       28754.43508248429        31919.739679391132       31928.91267530588        31928.926032488584       31928.926032488584
2.9715762273901842        50055.336805264276       28754.43508248429        31919.739679391132       31928.91267530588        31928.926032488584       31928.926032488584
3.1007751937984533        41037.88761580546        20301.591051341136       24141.05174384694        24145.669599640707       24145.67627823206        24145.67627823206
3.229974160206722         32020.438426346645       11848.747020197981       16362.363808302744       16362.426523975537       16362.426523975537       16362.426523975537
3.3591731266149902        32020.438426346645       11848.747020197981       16362.363808302744       16362.426523975537       16362.426523975537       16362.426523975537
3.488372093023259         23797.974279271024       15012.39627747474        20627.02882513216        20627.885755812356       20627.905754407468       20627.905754407468
3.617571059431528         15575.510132195399       18176.045534751498       24891.693841961576       24893.344987649176       24893.384984839402       24893.384984839402
3.7467700258397962        15575.510132195399       18176.045534751498       24891.693841961576       24893.344987649176       24893.384984839402       24893.384984839402
3.8759689922480653        17098.276408142407       15639.154626569603       21749.699475441277       21757.01390773086        21757.07299882151        21757.07299882151
4.005167958656335         18621.042684089414       13102.263718387709       18607.705108920978       18620.682827812543       18620.761012803618       18620.761012803618
4.1343669250646045        18621.042684089414       13102.263718387709       18607.705108920978       18620.682827812543       18620.761012803618       18620.761012803618
4.263565891472873         19250.72425051735        15000.744407517863       20200.27792962705        20206.902599528014       20206.941692023553       20206.941692023553
4.392764857881143         19880.405816945284       16899.225096648017       21792.85075033312        21793.122371243484       21793.122371243484       21793.122371243484
4.521963824289411         19880.405816945284       16899.225096648017       21792.85075033312        21793.122371243484       21793.122371243484       21793.122371243484
4.651162790697679         25911.21985586187        12159.847225043148       19621.67102772618        19643.115542455726       19643.120080910492       19643.120080910492
4.780361757105949         31942.033894778455       7420.469353438277        17450.49130511924        17493.108713667967       17493.117790577504       17493.117790577504
4.9095607235142165        31942.033894778455       7420.469353438277        17450.49130511924        17493.108713667967       17493.117790577504       17493.117790577504
5.038759689922486         25173.13496606737        10896.419266413186       15466.34416999868        15488.95401807917        15488.958556533938       15488.958556533938
5.167958656330756         18404.236037356284       14372.369179388095       13482.197034878118       13484.799322490373       13484.799322490373       13484.799322490373
5.297157622739023         18404.236037356284       14372.369179388095       13482.197034878118       13484.799322490373       13484.799322490373       13484.799322490373
5.426356589147293         18320.750236784952       23780.63257357529        14142.920646274444       14153.422256890522       14153.444569714293       14153.444569714293
5.555555555555562         18237.26443621362        33188.89596776249        14803.644257670769       14822.045191290672       14822.089816938213       14822.089816938213
5.68475452196383          18237.26443621362        33188.89596776249        14803.644257670769       14822.045191290672       14822.089816938213       14822.089816938213
5.813953488372099         17529.645674638738       30210.33459299003        12569.67096033026        12578.884002270404       12578.919427581635       12578.919427581635
5.9431524547803685        16822.026913063855       27231.773218217575       10335.697662989753       10335.722813250137       10335.749038225058       10335.749038225058
6.072351421188636         16822.026913063855       27231.773218217575       10335.697662989753       10335.722813250137       10335.749038225058       10335.749038225058
6.201550387596906         16167.750750718105       32587.6008425754         13261.152514610741       13320.352695197886       13320.378921164698       13320.378921164698
6.330749354005175         15513.474588372355       37943.42846693323        16186.607366231732       16304.982577145634       16305.008804104338       16305.008804104338
6.459948320413444         15513.474588372355       37943.42846693323        16186.607366231732       16304.982577145634       16305.008804104338       16305.008804104338
6.589147286821714         23726.159872968386       35856.676292717035       14363.768579671538       14426.266184004577       14426.810677030911       14426.810677030911
6.718346253229982         31938.845157564418       33769.92411850084        12540.929793111343       12547.54979086352        12548.612549957485       12548.612549957485
6.84754521963825          31938.845157564418       33769.92411850084        12540.929793111343       12547.54979086352        12548.612549957485       12548.612549957485
6.976744186046519         17550.55360179907        17788.64560880546        10549.435949529377       10556.921438146435       10557.813021811282       10557.813021811282
7.105943152454788         3162.262046033725        1807.3670991100719       8557.942105947412        8566.29308542935         8567.013493665081        8567.013493665081
7.235142118863057         3162.262046033725        1807.3670991100719       8557.942105947412        8566.29308542935         8567.013493665081        8567.013493665081
7.364341085271326         2494.5903231210914       1823.8223531641383       8621.080776088642        8861.737119968311        8862.217060428895        8862.217060428895
7.493540051679595         1826.9186002084575       1840.277607218205        8684.21944622987         9157.181154507274        9157.420627192709        9157.420627192709
7.622739018087865         1826.9186002084575       1840.277607218205        8684.21944622987         9157.181154507274        9157.420627192709        9157.420627192709
7.751937984496134         1742.42442046652         995.4307558120988        6591.882848436595        7036.474920108296        7036.594656451014        7036.594656451014
7.881136950904403         1657.9302407245823       150.5839044059927        4499.5462506433205       4915.768685709319        4915.768685709319        4915.768685709319
8.01033591731267          1657.9302407245823       150.5839044059927        4499.5462506433205       4915.768685709319        4915.768685709319        4915.768685709319
8.13953488372094          920.2189636102087        754.1216009608027        7914.294334169839        8401.482459142182        8401.482459142182        8401.482459142182
8.268733850129209         182.50768649583497       1357.6592975156125       11329.042417696357       11887.196232575045       11887.196232575045       11887.196232575045
8.397932816537477         182.50768649583497       1357.6592975156125       11329.042417696357       11887.196232575045       11887.196232575045       11887.196232575045
8.527131782945746         994.7572493541959        3064.8010481217107       10718.555603470759       11120.323807950484       11120.324655711916       11120.324655711916
8.656330749354014         1807.0068122125567       4771.942798727809        10108.06878924516        10353.451383325926       10353.453078848786       10353.453078848786
8.785529715762284         1807.0068122125567       4771.942798727809        10108.06878924516        10353.451383325926       10353.453078848786       10353.453078848786
8.914728682170551         8440.313199855464        9988.418715698648        10497.865101182273       10922.682450111042       10922.820358377097       10922.820358377097
9.043927648578821         15073.61958749837        15204.89463266949        10887.661413119386       11491.913516896158       11492.187637905408       11492.187637905408
9.17312661498709          15073.61958749837        15204.89463266949        10887.661413119386       11491.913516896158       11492.187637905408       11492.187637905408
9.30232558139536          7536.818979518549        8393.464962527525        10769.84043491033        11482.462959289775       11482.631311263405       11482.631311263405
9.43152454780363          0.018371538729029635     1582.0352923855608       10652.019456701273       11473.01240168339        11473.074984621402       11473.074984621402
9.5607235142119           0.018371538729029635     1582.0352923855608       10652.019456701273       11473.01240168339        11473.074984621402       11473.074984621402
9.689922480620167         8282.139476442688        9128.379404671135        9990.926431046262        10414.525242464917       10431.493204690727       10431.493204690727
9.819121447028435         16564.260581346647       16674.72351695671        9329.833405391251        9356.038083246443        9389.911424760054        9389.911424760054
9.948320413436702         16564.260581346647       16674.72351695671        9329.833405391251        9356.038083246443        9389.911424760054        9389.911424760054
10.07751937984497         8282.288404520848        8384.98344624281         7989.8010668518355       8003.7047336651185       8020.9361730785495       8020.9361730785495
10.20671834625324         0.3162276950510565       95.24337552890952        6649.76872831242         6651.371384083794        6651.960921397045        6651.960921397045
10.335917312661508        0.3162276950510565       95.24337552890952        6649.76872831242         6651.371384083794        6651.960921397045        6651.960921397045
10.465116279069777        0.1739259934797758       48.0917957301618         5901.187784767616        6818.61847109687         6822.849944463791        6822.849944463791
10.594315245478047        0.031624291908495104     0.9402159314140666       5152.606841222812        6985.8655581099465       6993.738967530538        6993.738967530538
10.723514211886316        0.031624291908495104     0.9402159314140666       5152.606841222812        6985.8655581099465       6993.738967530538        6993.738967530538
10.852713178294584        0.01581214670800362      828.7241545862707        4858.779690309045        5879.4311500066615       5892.689101668941        5892.689101668941
10.981912144702854        1.5075121341086608E-9    1656.5080932411274       4564.952539395277        4772.9967419033765       4791.639235807343        4791.639235807343
11.111111111111123        1.5075121341086608E-9    1656.5080932411274       4564.952539395277        4772.9967419033765       4791.639235807343        4791.639235807343
11.240310077519393        1.6564339356033796E-14   828.2540545167293        3505.2248325326636       3645.8708085420885       3655.442769884089        3655.442769884089
11.369509043927664        1.6564339356033796E-14   1.5792331236655594E-5    2445.4971256700505       2518.7448751808          2519.246303960836        2519.246303960836
11.49870801033593         1.6564339356033796E-14   1.5792331236655594E-5    2445.4971256700505       2518.7448751808          2519.246303960836        2519.246303960836
11.6279069767442          7.529194981322028E-4     1.5228958446061729E-9    1848.2032757163834       2405.5690164087746       2407.3230686722227       2422.7375902817575
11.75710594315247         0.0015058389962478412    1.5228958446061729E-9    1250.9094257627164       2292.3931576367495       2295.399833383609        2326.228876602679
11.886304909560737        0.0015058389962478412    1.5228958446061729E-9    1250.9094257627164       2292.3931576367495       2295.399833383609        2326.228876602679
12.015503875969006        0.7536725682151298       0.7538292072851677       2152.2224232846334       2786.7779624715836       2788.338096103213        2803.85741685048
12.144702842377276        1.5058392974340118       1.5076584130474395       3053.53542080655         3281.1627673064177       3281.276358822817        3281.4859570982812
12.273901808785542        1.5058392974340118       1.5076584130474395       3053.53542080655         3281.1627673064177       3281.276358822817        3281.4859570982812
12.403100775193812        0.7529197240213296       0.7538292065666385       1838.4265460096772       2076.4077679676975       2076.551872412828        2077.4556069375153
12.532299741602081        1.506086474032691E-7     8.583750158568072E-11    623.3176712128043        871.6527686289769        871.8273860028386        873.4252567767492
12.661498708010349        1.506086474032691E-7     8.583750158568072E-11    623.3176712128043        871.6527686289769        871.8273860028386        873.4252567767492
12.790697674418618        1.5058542220114838E-5    0.0017299676241724926    1344.676020273947        1883.3390903770676       1883.4377035842526       1884.2366389712079
12.919896640826888        1.5058542220114838E-5    0.0034599351625074835    2066.0343693350897       2895.0254121251583       2895.048021165667        2895.048021165667
13.049095607235154        1.5058542220114838E-5    0.0034599351625074835    2066.0343693350897       2895.0254121251583       2895.048021165667        2895.048021165667
13.178294573643424        75.29948653664235        0.009264639180030353     1718.0206077635705       2822.00414382838         2823.1469584495517       2823.1469584495517
13.307493540051695        150.59895801474246       0.015069343197553223     1370.0068461920514       2748.982875531602        2751.245895733437        2751.245895733437
13.436692506459964        150.59895801474246       0.015069343197553223     1370.0068461920514       2748.982875531602        2751.245895733437        2751.245895733437
13.565891472868234        76.05239850549523        0.007534671601313986     1263.2800300328663       2227.828947604835        2236.507107762868        2236.507107762868
13.695090439276504        1.5058389962480112       5.074749845363426E-12    1156.553213873681        1706.675019678068        1721.7683197922997       1721.7683197922997
13.824289405684771        1.5058389962480112       5.074749845363426E-12    1156.553213873681        1706.675019678068        1721.7683197922997       1721.7683197922997
13.953488372093037        7605.247455075053        7605.8524060405325       2886.353679635605        3207.0167725076726       3216.0212787243          3216.0212787243
14.082687338501309        15208.989071153857       15211.70481208106        4616.15414539753         4707.358525337278        4710.2742376563          4710.2742376563
14.211886304909578        15208.989071153857       15211.70481208106        4616.15414539753         4707.358525337278        4710.2742376563          4710.2742376563
14.341085271317848        15133.689592861105       15135.047428280095       3431.702143756176        3553.0341947324528       3572.4811265008584       3572.4811265008584
14.470284237726116        15058.39011456835        15058.39004447913        2247.250142114823        2398.709864127628        2434.6880153454167       2434.6880153454167
14.59948320413438         15058.39011456835        15058.39004447913        2247.250142114823        2398.709864127628        2434.6880153454167       2434.6880153454167
14.728682170542646        7529.195064889499        7529.1958580555          1619.0960607791799       2751.9741639522836       2770.037050391952        2770.037050391952
14.857881136950917        1.521064699981165E-5     0.0016716318697346526    990.9419794435369        3105.238463776939        3105.3860854384875       3105.3860854384875
14.987080103359187        1.521064699981165E-5     0.0016716318697346526    990.9419794435369        3105.238463776939        3105.3860854384875       3105.3860854384875
15.11627906976746         1.5060063100187384E-6    9.723634330911735E-4     1485.1925638931175       1995.5561398498219       1995.67843042998         1995.67843042998
15.245478036175728        1.5060063100187384E-6    2.7309499644769425E-4    1979.443148342698        885.8738159227047        885.9707754214722        885.9707754214722
15.374677002583995        1.5060063100187384E-6    2.7309499644769425E-4    1979.443148342698        885.8738159227047        885.9707754214722        885.9707754214722
15.503875968992261        0.8364943229480128       0.8366301174875295       1397.8141617153542       2774.0985923053686       2785.5109958858925       2785.6734588106237
15.633074935400531        1.6729871398897156       1.6729871399786111       816.1851750880103        4662.323368688032        4685.051216350313        4685.376142199775
15.762273901808802        1.6729871398897156       1.6729871399786111       816.1851750880103        4662.323368688032        4685.051216350313        4685.376142199775
15.891472868217072        0.8364935699448578       0.8364935839410559       440.21913991112814       2561.3926661038095       2602.89865938815         2603.2999463796627
16.02067183462534         3.174880825246619E-27    2.790350062204121E-8     64.25310473424597        460.46196351958645       520.7461024259876        521.2237505595506
16.149870801033607        3.174880825246619E-27    2.790350062204121E-8     64.25310473424597        460.46196351958645       520.7461024259876        521.2237505595506
16.279069767441875        0.008282114479364779     2.5803725002249725E-6    3315.4445491612214       1304.4317481704368       1681.3519589400944       1681.5931441009934
16.408268733850143        0.016564228958729558     2.5803725002249725E-6    6566.6359935881965       2148.401532821287        2841.9578154542014       2841.9625376424365
16.537467700258414        0.016564228958729558     2.5803725002249725E-6    6566.6359935881965       2148.401532821287        2841.9578154542014       2841.9625376424365
16.666666666666682        0.008282122836771207     1.6564228958740329E-9    3288.7169791604906       1592.7667245276425       1939.5518389230501       1939.5687789930103
16.795865633074953        1.671481285835226E-8     1.6564228958740329E-9    10.797964732784578       1037.1319162339978       1037.1458623918988       1037.1750203435838
16.925064599483225        1.671481285835226E-8     1.6564228958740329E-9    10.797964732784578       1037.1319162339978       1037.1458623918988       1037.1750203435838
17.054263565891493        1.5058391468321126E-8    1.5083328162096972E-8    6.810914247429929        1158.5309820931432       1218.6001514818875       1218.6147304577298
17.18346253229976         1.5058391468321126E-8    1.5083328162096972E-8    2.823863762075281        1279.9300479522885       1400.054440571876        1400.054440571876
17.312661498708025        1.5058391468321126E-8    1.5083328162096972E-8    2.823863762075281        1279.9300479522885       1400.054440571876        1400.054440571876
17.441860465116292        2.860625100337258E-22    1.5058389962478162E-5    334.4737394099095        1041.3622967549509       1101.4285270331002       1101.4285270331002
17.57105943152456         2.860625100337258E-22    1.5058389962478162E-5    666.1236150577438        802.7945455576132        802.8026134943245        802.8026134943245
17.700258397932828        2.860625100337258E-22    1.5058389962478162E-5    666.1236150577438        802.7945455576132        802.8026134943245        802.8026134943245
17.829457364341096        1.5208989071077754E-25   2.5211068096644975E-23   333.5482749825263        469.7939040213895        479.79880983622525       479.80053107383685
17.958656330749367        1.5208989071077754E-25   2.5211068096644975E-23   0.9729349073088963       136.79326248516574       156.79500617812596       156.79844865334917
18.08785529715763         1.5208989071077754E-25   2.5211068096644975E-23   0.9729349073088963       136.79326248516574       156.79500617812596       156.79844865334917
18.217054263565903        1.5058540546378077E-11   1.5209032725804654E-16   10.260503541295083       278.85814687643557       391.149587620513         391.1513088581246
18.34625322997417         1.5058540546378077E-11   1.5209032725804654E-16   19.54807217528127        420.92303126770537       625.5041690629           625.5041690629
18.47545219638244         1.5058540546378077E-11   1.5209032725804654E-16   19.54807217528127        420.92303126770537       625.5041690629           625.5041690629
18.604651162790717        75.29194981239941        75.29194981240566        85.21852932541803        1288.0953873462208       1406.2755303582387       1406.288396306652
18.73385012919898         150.58389962478375       150.58389962481132       150.8889864755548        2155.267743424736        2187.0468916535774       2187.072623550404
18.863049095607252        150.58389962478375       150.58389962481132       150.8889864755548        2155.267743424736        2187.0468916535774       2187.072623550404
18.992248062015516        75.29194981239263        75.29194981240641        77.12972982847512        1377.0661151579293       1402.0634131130464       1402.0762790614597
19.12144702842379         1.505838996249506E-12    1.5058398869365183E-12   3.3704731813954507       598.8644868911226        617.0799345725153        617.0799345725153
19.25064599483206         1.505838996249506E-12    1.5058398869365183E-12   3.3704731813954507       598.8644868911226        617.0799345725153        617.0799345725153
19.379844961240327        7.529194988768542E-4     7.529194988768378E-4     1.7393227024939575       988.5364257311036        1011.8270855339506       1011.8270855339506
19.509043927648598        0.0015058389962478694    0.0015058389962478358    0.10817222359246406      1378.2083645710845       1406.574236495386        1406.574236495386
19.638242894056862        0.0015058389962478694    0.0015058389962478358    0.10817222359246406      1378.2083645710845       1406.574236495386        1406.574236495386
19.76744186046513         7.529947976781921        7.530560880477269E-4     697.8293297470545        1095.0098358330788       1124.5196926979452       1124.5196926979452
19.896640826873405        15.058390114567594       2.731798476179044E-7     1395.5504872705167       811.8113070950731        842.4651489005046        842.4651489005046
20.025839793281673        15.058390114567594       2.731798476179044E-7     1395.5504872705167       811.8113070950731        842.4651489005046        842.4651489005046
20.155038759689944        7.529195057283797        3.8828349561611757E-26   868.7729597880278        455.9238023206779        471.25109165247534       471.25136740602
20.284237726098212        1.671496344226839E-30    3.8828349561611757E-26   341.99543230553894       100.0362975462828        100.03703440444605       100.03758591153542
20.413436692506476        1.671496344226839E-30    3.8828349561611757E-26   341.99543230553894       100.0362975462828        100.03703440444605       100.03758591153542
20.542635658914744        1.6881962492773785E-23   3.2833627514071824E-21   171.02109908535843       179.41377801650626       191.72579500453637       191.74637271167302
20.671834625323015        1.6881962492773785E-23   3.2833627514071824E-21   0.046765865177904854     258.7912584867297        283.4145556046267        283.4551595118106
20.801033591731287        1.6881962492773785E-23   3.2833627514071824E-21   0.046765865177904854     258.7912584867297        283.4145556046267        283.4551595118106
20.930232558139554        1.5074954191437443E-8    752.9194981314446        752.9436530157669        1160.672967054939        1181.604030686461        1181.624332640053
21.059431524547826        1.5074954191437443E-8    1505.8389962628892       1505.840540166356        2062.554675623148        2079.7935057682953       2079.7935057682953
21.188630490956093        1.5074954191437443E-8    1505.8389962628892       1505.840540166356        2062.554675623148        2079.7935057682953       2079.7935057682953
21.317829457364358        1.507510485093009E-16    836.4935636776371        839.8141553347849        3991.846294297929        4004.3355352693725       4004.3355352693725
21.44702842377263         1.507510485093009E-16    167.1481310923851        173.7877705032138        5921.13791297271         5928.87756477045         5928.87756477045
21.576227390180897        1.507510485093009E-16    167.1481310923851        173.7877705032138        5921.13791297271         5928.87756477045         5928.87756477045
21.705426356589168        1.5058389962478868E-13   83.57406554623873        86.89625472932543        3104.8056498061087       3127.81943433731         3127.81943433731
21.83462532299744         1.5058389962478868E-13   9.234647918067033E-11    0.0047389554370484204    288.47338663950734       326.7613039041705        326.7613039041705
21.9638242894057          1.5058389962478868E-13   9.234647918067033E-11    0.0047389554370484204    288.47338663950734       326.7613039041705        326.7613039041705
22.09302325581397         1.505838996247957E-34    2.048241976209379E-19    0.002381307444755388     161.13568873265396       181.1710160371607        181.1804632135066
22.22222222222224         1.505838996247957E-34    2.048241976209379E-19    2.365945246235505E-5     33.79799082580058        35.580728170150934       35.5996225228427
22.35142118863051         1.505838996247957E-34    2.048241976209379E-19    2.365945246235505E-5     33.79799082580058        35.580728170150934       35.5996225228427