% Model:              Cav_Hex_Unif_flux_v5.1.1 - Lin. Distn.mph
% Version:            COMSOL 5.5.0.359
% Date:               Dec 9 2021, 14:48
% Dimension:          1
% Nodes:              457
% Expressions:        6
% Description:        Line graph
% x                       Height                   Height                   Height                   Height                   Height                   Height
0                         50265.711273969195       15410.721106677385       16277.994817759634       16277.994817758852       16277.994817758852       16277.994817758852
0.43859649122806893       50265.711273969195       15410.721106677385       16277.994817759634       16277.994817758852       16277.994817758852       16277.994817758852
0.8771929824561379        50265.711273969195       15410.721106677385       16277.994817759634       16277.994817758852       16277.994817758852       16277.994817758852
1.3157894736842068        42836.53813514403        15287.349379175968       16439.59088864614        16439.590888645413       16439.590888645413       16439.590888645413
1.7543859649122757        35407.36499631886        15163.977651674551       16601.186959532643       16601.18695953197        16601.18695953197        16601.18695953197
2.192982456140345         35407.36499631886        15163.977651674551       16601.186959532643       16601.18695953197        16601.18695953197        16601.18695953197
2.6315789473684137        44518.81724374824        17284.2258100411         18974.282040906142       18978.922935197777       18978.922935197777       18978.922935197777
3.070175438596483         53630.26949117762        19404.473968407652       21347.377122279642       21356.65891086358        21356.65891086358        21356.65891086358
3.508771929824552         53630.26949117762        19404.473968407652       21347.377122279642       21356.65891086358        21356.65891086358        21356.65891086358
3.947368421052621         46767.08451635292        19600.37349857344        21587.811883786417       21597.086418416595       21597.086418416595       21597.086418416595
4.3859649122806905        39903.899541528226       19796.273028739226       21828.246645293195       21837.513925969608       21837.513925969608       21837.513925969608
4.824561403508759         39903.899541528226       19796.273028739226       21828.246645293195       21837.513925969608       21837.513925969608       21837.513925969608
5.263157894736827         43946.63974607174        20201.73616741779        22239.251474343044       22258.83515604113        22258.83515604113        22258.83515604113
5.701754385964897         47989.37995061526        20607.19930609635        22650.256303392896       22680.15638611265        22680.15638611265        22680.15638611265
6.140350877192967         47989.37995061526        20607.19930609635        22650.256303392896       22680.15638611265        22680.15638611265        22680.15638611265
6.578947368421037         38351.729195994514       20480.632829109076       23414.93952097741        23442.004452360998       23442.004452360998       23442.004452360998
7.017543859649106         28714.07844137377        20354.066352121805       24179.62273856192        24203.852518609347       24203.852518609347       24203.852518609347
7.456140350877175         28714.07844137377        20354.066352121805       24179.62273856192        24203.852518609347       24203.852518609347       24203.852518609347
7.894736842105244         31897.05409505264        19885.065042056092       23704.15668459559        23731.478349034143       23731.478349034143       23731.478349034143
8.333333333333314         35080.02974873151        19416.063731990376       23228.690630629255       23259.104179458944       23259.104179458944       23259.104179458944
8.771929824561383         35080.02974873151        19416.063731990376       23228.690630629255       23259.104179458944       23259.104179458944       23259.104179458944
9.210526315789451         38061.29136477437        20610.753314773814       24361.75914675874        24384.91098610372        24384.91098610372        24384.91098610372
9.649122807017521         41042.55298081722        21805.442897557252       25494.827662888223       25510.717792748495       25510.717792748495       25510.717792748495
10.08771929824559         41042.55298081722        21805.442897557252       25494.827662888223       25510.717792748495       25510.717792748495       25510.717792748495
10.52631578947366         37931.899260016144       20382.42529506317        24482.007314320817       24489.95237925062        24489.95237925062        24489.95237925062
10.96491228070173         34821.24553921506        18959.40769256909        23469.18696575341        23469.186965752742       23469.186965752742       23469.186965752742
11.403508771929795        34821.24553921506        18959.40769256909        23469.18696575341        23469.186965752742       23469.186965752742       23469.186965752742
11.842105263157865        33904.31623439486        18021.967952333634       21866.02093729531        21873.435817843074       21873.435817843074       21873.435817843074
12.280701754385934        32987.386929574655       17084.52821209818        20262.854908837213       20277.684669933406       20277.684669933406       20277.684669933406
12.719298245614002        32987.386929574655       17084.52821209818        20262.854908837213       20277.684669933406       20277.684669933406       20277.684669933406
13.15789473684207         30964.681603903286       16583.6934855315         21429.901669517174       21467.71618187477        21467.71618187477        21467.71618187477
13.596491228070139        28941.976278231916       16082.858758964825       22596.948430197135       22657.747693816138       22657.747693816138       22657.747693816138
14.03508771929821         28941.976278231916       16082.858758964825       22596.948430197135       22657.747693816138       22657.747693816138       22657.747693816138
14.47368421052628         34015.93482782571        17506.65019151783        23511.263594899407       23577.97726491297        23577.97726491297        23577.97726491297
14.91228070175435         39089.8933774195         18930.441624070834       24425.578759601674       24498.206836009802       24498.206836009802       24498.206836009802
15.350877192982416        39089.8933774195         18930.441624070834       24425.578759601674       24498.206836009802       24498.206836009802       24498.206836009802
15.789473684210485        34890.821148936186       16775.742853863394       22486.41080608932        22565.816603560444       22565.816603560444       22565.816603560444
16.228070175438553        30691.748920452865       14621.044083655954       20547.24285257697        20633.426371111083       20633.426371111083       20633.426371111083
16.66666666666662         30691.748920452865       14621.044083655954       20547.24285257697        20633.426371111083       20633.426371111083       20633.426371111083
17.10526315789469         26892.995663653877       14079.081066598552       20579.208974969588       20625.720815185465       20625.720815185465       20625.720815185465
17.543859649122762        23094.242406854893       13537.11804954115        20611.17509736221        20618.01525925985        20618.01525925985        20618.01525925985
17.98245614035083         23094.242406854893       13537.11804954115        20611.17509736221        20618.01525925985        20618.01525925985        20618.01525925985
18.4210526315789          24481.616490392513       11701.555246710623       19578.03502941905        19615.1537979492         19615.1537979492         19615.1537979492
18.85964912280697         25868.990573930132       9865.992443880095        18544.89496147589        18612.292336638548       18612.292336638548       18612.292336638548
19.29824561403504         25868.990573930132       9865.992443880095        18544.89496147589        18612.292336638548       18612.292336638548       18612.292336638548
19.73684210526311         19132.887109599105       19670.840858393145       17234.25715563121        17274.908574204073       17274.908574204073       17274.908574204073
20.175438596491183        12396.783645268079       29475.6892729062         15923.619349786535       15937.524811769597       15937.524811769597       15937.524811769597
20.61403508771925         12396.783645268079       29475.6892729062         15923.619349786535       15937.524811769597       15937.524811769597       15937.524811769597
21.05263157894732         14000.042992208106       37494.81271832048        16348.056553462597       16397.455673402794       16397.455673402794       16397.455673402794
21.49122807017539         15603.302339148133       45513.93616373476        16772.493757138658       16857.38653503599        16857.38653503599        16857.38653503599
21.929824561403457        15603.302339148133       45513.93616373476        16772.493757138658       16857.38653503599        16857.38653503599        16857.38653503599
22.368421052631522        13454.393826311196       39715.025960757994       16865.088197364654       16993.011056950763       16993.011056950763       16993.011056950763
22.807017543859594        11305.48531347426        33916.11575778123        16957.682637590646       17128.63557886554        17128.63557886554        17128.63557886554
23.24561403508766         11305.48531347426        33916.11575778123        16957.682637590646       17128.63557886554        17128.63557886554        17128.63557886554
23.68421052631573         11249.190827208262       34744.37377378917        15994.62368100114        16116.7867387371         16116.7867387371         16116.7867387371
24.122807017543803        11192.896340942265       35572.63178979712        15031.564724411635       15104.937898608665       15104.937898608665       15104.937898608665
24.561403508771875        11192.896340942265       35572.63178979712        15031.564724411635       15104.937898608665       15104.937898608665       15104.937898608665
24.999999999999943        9542.584375003862        27297.071887825812       13843.608247950608       13899.984767584525       13899.984767584525       13899.984767584525
25.438596491228015        7892.272409065461        19021.511985854508       12655.651771489582       12695.031636560385       12695.031636560385       12695.031636560385
25.877192982456084        7892.272409065461        19021.511985854508       12655.651771489582       12695.031636560385       12695.031636560385       12695.031636560385
26.31578947368415         8439.76864470275         17926.51448692535        12255.45083551462        12318.631612539852       12318.631612539852       12318.631612539852
26.754385964912217        8987.264880340039        16831.51698799619        11855.249899539658       11942.231588519317       11942.231588519317       11942.231588519317
27.19298245614029         8987.264880340039        16831.51698799619        11855.249899539658       11942.231588519317       11942.231588519317       11942.231588519317
27.631578947368357        7050.451545578987        15640.837557233179       12458.052256775216       12555.30409241072        12555.30409241072        12555.30409241072
28.070175438596426        5113.638210817935        14450.158126470169       13060.854614010776       13168.376596302125       13168.376596302125       13168.376596302125
28.508771929824494        5113.638210817935        14450.158126470169       13060.854614010776       13168.376596302125       13168.376596302125       13168.376596302125
28.947368421052563        5829.085162091984        15540.616178752927       12236.997924603544       12336.897525339993       12336.897525339993       12336.897525339993
29.385964912280635        6544.532113366033        16631.074231035687       11413.141235196312       11505.418454377861       11505.418454377861       11505.418454377861
29.8245614035087          6544.532113366033        16631.074231035687       11413.141235196312       11505.418454377861       11505.418454377861       11505.418454377861
30.263157894736768        7065.254272195432        14684.561132939501       10705.19410926671        10796.772794287226       10796.772794287226       10796.772794287226
30.701754385964836        7585.976431024833        12738.048034843316       9997.246983337107        10088.127134196591       10088.127134196591       10088.127134196591
31.140350877192905        7585.976431024833        12738.048034843316       9997.246983337107        10088.127134196591       10088.127134196591       10088.127134196591
31.578947368420977        6697.6530867288275       10025.627159427686       9704.066632947879        9835.275067093804        9835.275067093804        9835.275067093804
32.01754385964905         5809.329742432823        7313.206284012057        9410.886282558651        9582.422999991017        9582.422999991017        9582.422999991017
32.456140350877114        5809.329742432823        7313.206284012057        9410.886282558651        9582.422999991017        9582.422999991017        9582.422999991017
32.89473684210518         7399.230334281291        10027.608598263874       9983.028290354881        10150.043861899125       10150.043861899125       10150.043861899125
33.33333333333326         8989.13092612976         12742.010912515692       10555.170298151112       10717.664723807233       10717.664723807233       10717.664723807233
33.771929824561326        8989.13092612976         12742.010912515692       10555.170298151112       10717.664723807233       10717.664723807233       10717.664723807233
34.210526315789394        7344.483940671731        11334.309100185004       10059.681193562908       10188.166448474738       10188.166448474738       10188.166448474738
34.649122807017456        5699.836955213703        9926.607287854318        9564.192088974703        9658.668173142241        9658.668173142241        9658.668173142241
35.087719298245524        5699.836955213703        9926.607287854318        9564.192088974703        9658.668173142241        9658.668173142241        9658.668173142241
35.526315789473585        7128.158056540144        9301.26921280114         9072.31398957856         9154.855190590664        9154.855190590664        9154.855190590664
35.96491228070167         8556.479157866585        8675.931137747963        8580.43589018242         8651.042208039085        8651.042208039085        8651.042208039085
36.40350877192974         8556.479157866585        8675.931137747963        8580.43589018242         8651.042208039085        8651.042208039085        8651.042208039085
36.842105263157805        8366.779515932296        10176.030053585702       8571.36110529783         8716.627921268584        8716.627921268584        8716.627921268584
37.28070175438588         8177.079873998007        11676.12896942344        8562.286320413239        8782.213634498083        8782.213634498083        8782.213634498083
37.71929824561394         8177.079873998007        11676.12896942344        8562.286320413239        8782.213634498083        8782.213634498083        8782.213634498083
38.15789473684202         4833.374764969703        7616.284392955802        7795.072471946822        8016.524742214127        8016.524742214127        8016.524742214127
38.596491228070086        1489.6696559414          3556.439816488165        7027.858623480404        7250.835849930172        7250.835849930172        7250.835849930172
39.03508771929816         1489.6696559414          3556.439816488165        7027.858623480404        7250.835849930172        7250.835849930172        7250.835849930172
39.47368421052623         4128.481948426953        6385.466107292901        7242.233252294491        7478.201298398959        7478.201298398959        7478.201298398959
39.912280701754305        6767.294240912506        9214.492398097638        7456.607881108576        7705.566746867745        7705.566746867745        7705.566746867745
40.35087719298237         6767.294240912506        9214.492398097638        7456.607881108576        7705.566746867745        7705.566746867745        7705.566746867745
40.78947368421043         3536.9180586854795       5302.979656326871        6678.427587173457        6918.66912202426         6918.66912202426         6918.66912202426
41.2280701754385          306.5418764584528        1391.4669145561043       5900.247293238339        6131.771497180775        6131.771497180775        6131.771497180775
41.66666666666657         306.5418764584528        1391.4669145561043       5900.247293238339        6131.771497180775        6131.771497180775        6131.771497180775
42.10526315789464         2847.2914480348268       3570.1090914740726       5465.3544536003765       5695.629605588616        5695.629605588616        5695.629605588616
42.543859649122716        5388.041019611201        5748.75126839204         5030.461613962414        5259.487713996456        5259.487713996456        5259.487713996456
42.982456140350784        5388.041019611201        5748.75126839204         5030.461613962414        5259.487713996456        5259.487713996456        5259.487713996456
43.42105263157885         3435.253132964105        3726.9980870696663       5318.744527994661        5589.722317136389        5589.722317136389        5589.722317136389
43.85964912280692         1482.46524631701         1705.2449057472918       5607.027442026909        5919.956920276323        5919.956920276323        5919.956920276323
44.29824561403498         1482.46524631701         1705.2449057472918       5607.027442026909        5919.956920276323        5919.956920276323        5919.956920276323
44.736842105263044        2769.963916425936        2885.559274850574        5062.410496282579        5427.621363819404        5427.621363819404        5427.621363819404
45.17543859649112         4057.4625865348617       4065.873643953856        4517.793550538248        4935.285807362486        4935.285807362486        4935.285807362486
45.61403508771919         4057.4625865348617       4065.873643953856        4517.793550538248        4935.285807362486        4935.285807362486        4935.285807362486
46.05263157894726         4410.5571156311335       4519.3181951948445       5309.956527260309        5811.393597025763        5811.393597025763        5811.393597025763
46.49122807017533         4763.651644727405        4972.762746435832        6102.119503982369        6687.50138668904         6687.50138668904         6687.50138668904
46.92982456140341         4763.651644727405        4972.762746435832        6102.119503982369        6687.50138668904         6687.50138668904         6687.50138668904
47.368421052631476        4409.966303635579        4530.012418189117        5310.336395835597        5860.561202744431        5860.561202744431        5860.561202744431
47.80701754385955         4056.2809625437517       4087.262089942401        4518.553287688826        5033.621018799823        5033.621018799823        5033.621018799823
48.24561403508762         4056.2809625437517       4087.262089942401        4518.553287688826        5033.621018799823        5033.621018799823        5033.621018799823
48.68421052631568         4881.656118315339        4897.541223826514        4917.390141044016        5339.410191107649        5339.410191107649        5339.410191107649
49.12280701754376         5707.031274086927        5707.820357710627        5316.226994399205        5645.199363415474        5645.199363415474        5645.199363415474
49.56140350877182         5707.031274086927        5707.820357710627        5316.226994399205        5645.199363415474        5645.199363415474        5645.199363415474
49.99999999999989         2919.8104428518295       3270.36514489429         3934.346989574661        4746.680690416786        4746.680690416786        4746.680690416786
50.43859649122796         132.58961161673213       832.9099320779535        2552.4669847501173       3848.162017418099        3848.162017418099        3848.162017418099
50.87719298245604         132.58961161673213       832.9099320779535        2552.4669847501173       3848.162017418099        3848.162017418099        3848.162017418099
51.315789473684106        858.5136396316756        1208.7357986806473       2796.7434847821633       3858.659254022887        3858.659254022887        3858.659254022887
51.75438596491218         1584.437667646619        1584.5616652833412       3041.0199848142092       3869.1564906276753       3869.1564906276753       3869.1564906276753
52.19298245614025         1584.437667646619        1584.5616652833412       3041.0199848142092       3869.1564906276753       3869.1564906276753       3869.1564906276753
52.63157894736832         806.0513924572477        854.5189162130469        3171.8614739049794       3913.347433822297        3913.347433822297        3913.347433822297
53.070175438596394        27.665117267876337       124.4761671427524        3302.7029629957497       3957.5383770169187       3957.5383770169187       3957.5383770169187
53.50877192982446         27.665117267876337       124.4761671427524        3302.7029629957497       3957.5383770169187       3957.5383770169187       3957.5383770169187
53.94736842105254         2062.0312553913304       2110.4416256198574       3311.272984103928        4072.9342380873913       4072.9342380873913       4072.9342380873913
54.385964912280606        4096.397393514784        4096.4070840969625       3319.843005212107        4188.3300991578635       4188.3300991578635       4188.3300991578635
54.82456140350868         4096.397393514784        4096.4070840969625       3319.843005212107        4188.3300991578635       4188.3300991578635       4188.3300991578635
55.26315789473675         2709.067289808744        2712.546041712745        3170.348191158352        4132.851155620714        4132.851155620714        4132.851155620714
55.70175438596482         1321.737186102704        1328.6849993285277       3020.8533771045973       4077.372212083564        4077.372212083564        4077.372212083564
56.140350877192894        1321.737186102704        1328.6849993285277       3020.8533771045973       4077.372212083564        4077.372212083564        4077.372212083564
56.57894736842096         1518.9784631443865       1951.1969229468102       2746.0023069110202       3584.4565529271385       3589.148113757864        3589.148113757864
57.01754385964904         1716.219740186069        2573.7088465650927       2471.1512367174428       3091.5408937707125       3100.924015432164        3100.924015432164
57.45614035087711         1716.219740186069        2573.7088465650927       2471.1512367174428       3091.5408937707125       3100.924015432164        3100.924015432164
57.89473684210518         931.5205609262769        1398.9442304949007       2134.2075253249373       2995.144736074729        3009.2715470205812       3009.2715470205812
58.33333333333324         146.8213816664848        224.17961442470846       1797.2638139324317       2898.748578378745        2917.6190786089983       2917.6190786089983
58.77192982456131         146.8213816664848        224.17961442470846       1797.2638139324317       2898.748578378745        2917.6190786089983       2917.6190786089983
59.210526315789366        864.9537393340017        1289.5249829687214       1855.4852784150287       2914.681190510835        2924.116440625962        2924.116440625962
59.64912280701744         1583.0860970015187       2354.8703515127345       1913.7067428976256       2930.6138026429253       2930.6138026429253       2930.6138026429253
60.08771929824551         1583.0860970015187       2354.8703515127345       1913.7067428976256       2930.6138026429253       2930.6138026429253       2930.6138026429253
60.52631578947358         1576.4855495850943       1966.665636536031        3704.0499115788325       2738.4827250925523       2738.4827250925523       2738.4827250925523
60.964912280701654        1569.8850021686699       1578.4609215593273       5494.393080260039        2546.3516475421793       2546.3516475421793       2546.3516475421793
61.40350877192971         1569.8850021686699       1578.4609215593273       5494.393080260039        2546.3516475421793       2546.3516475421793       2546.3516475421793
61.84210526315778         1505.12179472765         1509.4098964279005       5646.956976992695        2353.7218686106635       2353.7218686106635       2353.7218686106635
62.28070175438585         1440.3585872866302       1440.358871296474        5799.52087372535         2161.0920896791476       2161.0920896791476       2161.0920896791476
62.71929824561393         1440.3585872866302       1440.358871296474        5799.52087372535         2161.0920896791476       2161.0920896791476       2161.0920896791476
63.157894736841996        1576.9442391402536       1576.9443877486328       5123.762056708965        2317.1047601232185       2362.4001743449794       2362.4001743449794
63.596491228070064        1713.5298909938767       1713.5299042007919       4448.003239692582        2473.1174305672894       2563.708259010811        2563.708259010811
64.03508771929813         1713.5298909938767       1713.5299042007919       4448.003239692582        2473.1174305672894       2563.708259010811        2563.708259010811
64.47368421052622         2895.7948401212143       2895.8373579981226       6180.574362854374        2609.628102889438        2689.606267038218        2689.606267038218
64.91228070175428         4078.0597892485516       4078.1448117954533       7913.145486016167        2746.138775211587        2815.504275065625        2815.504275065625
65.35087719298234         4078.0597892485516       4078.1448117954533       7913.145486016167        2746.138775211587        2815.504275065625        2815.504275065625
65.7894736842104          2183.529007788613        2183.5745424069596       5103.197767441741        2175.040607781648        2209.723357708667        2209.723357708667
66.22807017543848         288.9982263286741        289.00427301846634       2293.250048867316        1603.9424403517091       1603.9424403517091       1603.9424403517091
66.66666666666654         288.9982263286741        289.00427301846634       2293.250048867316        1603.9424403517091       1603.9424403517091       1603.9424403517091
67.1052631578946          1452.384345308472        1452.3873723133024       3135.980816544802        1970.5284597372981       1992.8113468843858       1992.8113468843858
67.54385964912267         2615.7704642882695       2615.7704716081385       3978.7115842222884       2337.114479122887        2381.6802534170624       2381.6802534170624
67.98245614035073         2615.7704642882695       2615.7704716081385       3978.7115842222884       2337.114479122887        2381.6802534170624       2381.6802534170624
68.42105263157882         1315.8000070839967       1315.842881236448        2602.606214421279        2056.398054939226        2089.578045665659        2089.578045665659
68.8596491228069          15.829549879723583       15.915290864757697       1226.5008446202696       1775.6816307555646       1797.4758379142554       1797.4758379142554
69.29824561403497         15.829549879723583       15.915290864757697       1226.5008446202696       1775.6816307555646       1797.4758379142554       1797.4758379142554
69.73684210526304         668.6177897690955        668.6610891389323        1479.6623011240404       1616.6688647381068       1650.6950427573972       1650.6950427573972
70.17543859649112         1321.4060296584673       1321.406887413107        1732.8237576278113       1457.656098720649        1503.914247600539        1503.914247600539
70.61403508771917         1321.4060296584673       1321.406887413107        1732.8237576278113       1457.656098720649        1503.914247600539        1503.914247600539
71.05263157894723         3341.6183180745634       3341.6195442855915       4899.170647185785        1727.6288196616651       1750.7578941016102       1750.7578941016102
71.4912280701753          5361.830606490659        5361.832201158076        8065.517536743759        1997.6015406026813       1997.6015406026813       1997.6015406026813
71.92982456140336         5361.830606490659        5361.832201158076        8065.517536743759        1997.6015406026813       1997.6015406026813       1997.6015406026813
72.36842105263145         2752.8752011846336       2752.8851062362683       4670.980586333166        1919.15520202782         1923.788842366423        1923.788842366423
72.80701754385952         143.91979587860789       143.93801131446085       1276.4436359225733       1840.7088634529587       1849.9761441301648       1849.9761441301648
73.24561403508758         143.91979587860789       143.93801131446085       1276.4436359225733       1840.7088634529587       1849.9761441301648       1849.9761441301648
73.68421052631564         73.93352921764973        76.4505364347238         959.6418145666383        1600.1634259838459       1612.742131252999        1612.742131252999
74.12280701754374         3.947262556691579        8.963061554986766        642.8399932107034        1359.617988514733        1375.508118375833        1375.508118375833
74.56140350877179         3.947262556691579        8.963061554986766        642.8399932107034        1359.617988514733        1375.508118375833        1375.508118375833
74.99999999999986         728.0932246703504        730.6063524306394        1216.9015966342272       1367.2303241078826       1417.5135428584476       1417.5135428584476
75.43859649122794         1452.2391867840092       1452.249643306292        1790.963200057751        1374.842659701032        1459.5189673410625       1459.5189673410625