% Model:              Cav_Hex_Unif_flux_v5.1.1 - Lin. Distn.mph
% Version:            COMSOL 5.5.0.359
% Date:               Dec 9 2021, 14:48
% Dimension:          1
% Nodes:              430
% Expressions:        6
% Description:        Line graph
% x                       Height                   Height                   Height                   Height                   Height                   Height
0                         42831.289111167345       20572.841754679233       21640.122535794824       21640.122535794824       21640.12253579381        21640.12253579381
0.2331002331002331        42831.289111167345       20572.841754679233       21640.122535794824       21640.122535794824       21640.12253579381        21640.12253579381
0.4662004662004662        42831.289111167345       20572.841754679233       21640.122535794824       21640.122535794824       21640.12253579381        21640.12253579381
0.6993006993006993        36064.45439331005        19223.076415275948       20699.885439016667       20699.885439016667       20699.885439015834       20699.885439015834
0.9324009324009324        29297.619675452755       17873.31107587266        19759.648342238514       19759.648342238514       19759.64834223786        19759.64834223786
1.1655011655011656        29297.619675452755       17873.31107587266        19759.648342238514       19759.648342238514       19759.64834223786        19759.64834223786
1.3986013986013985        43974.33157910724        16355.31699133165        18101.36520662783        18107.82229473564        18107.822294734964       18107.822294734964
1.6317016317016317        58651.043482761714       14837.32290679064        16443.08207101715        16455.996247232768       16455.99624723207        16455.99624723207
1.8648018648018643        58651.043482761714       14837.32290679064        16443.08207101715        16455.996247232768       16455.99624723207        16455.99624723207
2.0979020979020975        45597.77244361992        14387.559992344577       16300.783319590446       16382.2833186396         16382.283318638943       16382.283318638943
2.3310023310023307        32544.501404478124       13937.797077898516       16158.48456816374        16308.570390046432       16308.570390045817       16308.570390045817
2.5641025641025634        32544.501404478124       13937.797077898516       16158.48456816374        16308.570390046432       16308.570390045817       16308.570390045817
2.797202797202796         27134.256324731046       15055.902655769212       16955.923603212123       17045.840842488695       17045.840842488105       17045.840842488105
3.03030303030303          21724.011244983965       16174.008233639906       17753.362638260507       17783.11129493096        17783.111294930397       17783.111294930397
3.2634032634032635        21724.011244983965       16174.008233639906       17753.362638260507       17783.11129493096        17783.111294930397       17783.111294930397
3.4965034965034967        37540.50562203812        18110.1582038124         20224.999582083732       20248.709500694044       20248.70950069335        20248.70950069335
3.7296037296037294        53356.99999909227        20046.308173984893       22696.636525906957       22714.30770645713        22714.3077064563         22714.3077064563
3.962703962703962         53356.99999909227        20046.308173984893       22696.636525906957       22714.30770645713        22714.3077064563         22714.3077064563
4.195804195804195         47944.30217650524        20162.712788042656       23298.42942127636        23311.09731120689        23311.097311206064       23311.097311206064
4.428904428904428         42531.6043539182         20279.11740210042        23900.222316645762       23907.886915956653       23907.886915955827       23907.886915955827
4.6620046620046605        42531.6043539182         20279.11740210042        23900.222316645762       23907.886915956653       23907.886915955827       23907.886915955827
4.895104895104893         36489.98366458257        18749.003328052437       23127.3889780226         23145.0639873442         23145.0639873435         23145.0639873435
5.128205128205128         30448.362975246935       17218.88925400445        22354.55563939944        22382.24105873175        22382.241058731175       22382.241058731175
5.3613053613053605        30448.362975246935       17218.88925400445        22354.55563939944        22382.24105873175        22382.241058731175       22382.241058731175
5.594405594405594         33763.76104457615        20576.250484188953       24911.047768443037       24936.685430943144       24936.685430942423       24936.685430942423
5.827505827505827         37079.15911390538        23933.61171437346        27467.539897486633       27491.129803154538       27491.12980315367        27491.12980315367
6.060606060606059         37079.15911390538        23933.61171437346        27467.539897486633       27491.129803154538       27491.12980315367        27491.12980315367
6.2937062937062915        34740.46138882509        21657.150258077498       25979.0217816922         26052.5057545928         26052.50575459201        26052.50575459201
6.526806526806525         32401.7636637448         19380.688801781533       24490.50366589777        24613.88170603106        24613.881706030348       24613.881706030348
6.759906759906759         32401.7636637448         19380.688801781533       24490.50366589777        24613.88170603106        24613.881706030348       24613.881706030348
6.9930069930069925        26733.986223104414       16960.63988100581        22126.804300787833       22190.027089206054       22190.02708920545        22190.02708920545
7.226107226107226         21066.208782464026       14540.590960230087       19763.104935677897       19766.172472381048       19766.172472380553       19766.172472380553
7.459207459207458         21066.208782464026       14540.590960230087       19763.104935677897       19766.172472381048       19766.172472380553       19766.172472380553
7.692307692307692         25802.148313500395       18292.255754802594       24079.952863033755       24143.322307718347       24143.322307717735       24143.322307717735
7.925407925407924         30538.08784453676        22043.9205493751         28396.800790389614       28520.472143055646       28520.472143054918       28520.472143054918
8.158508158508157         30538.08784453676        22043.9205493751         28396.800790389614       28520.472143055646       28520.472143054918       28520.472143054918
8.391608391608388         40045.65418786407        21091.434965639542       28710.161433478683       28831.49581365192        28831.495813651087       28831.495813651087
8.624708624708623         49553.220531191386       20138.949381903985       29023.52207656775        29142.51948424819        29142.519484247256       29142.519484247256
8.857808857808857         49553.220531191386       20138.949381903985       29023.52207656775        29142.51948424819        29142.519484247256       29142.519484247256
9.09090909090909          28070.416898890897       14018.163553010163       21461.074246880446       21664.248720574637       21664.24872057411        21664.24872057411
9.324009324009324         6587.61326659041         7897.3777241163425       13898.626417193143       14185.977956901083       14185.977956900962       14185.977956900962
9.557109557109555         6587.61326659041         7897.3777241163425       13898.626417193143       14185.977956901083       14185.977956900962       14185.977956900962
9.79020979020979          11439.859227521145       12689.815111676027       13848.772990908667       13996.252914212706       13996.252914212502       13996.252914212502
10.023310023310023        16292.105188451878       17482.252499235714       13798.91956462419        13806.52787152433        13806.527871524044       13806.527871524044
10.256410256410257        16292.105188451878       17482.252499235714       13798.91956462419        13806.52787152433        13806.527871524044       13806.527871524044
10.48951048951049         15462.46564515117        30112.930237807406       14378.5313165225         14396.828900808294       14396.82890080805        14396.82890080805
10.722610722610721        14632.826101850462       42743.6079763791         14958.14306842081        14987.129930092258       14987.129930092055       14987.129930092055
10.955710955710956        14632.826101850462       42743.6079763791         14958.14306842081        14987.129930092258       14987.129930092055       14987.129930092055
11.188811188811187        7681.1313286277355       24088.71661452661        14962.455306646081       15066.66717059473        15066.66717059461        15066.66717059461
11.42191142191142         729.4365554050091        5433.825252674117        14966.767544871353       15146.204411097202       15146.204411097164       15146.204411097164
11.65501165501165         729.4365554050091        5433.825252674117        14966.767544871353       15146.204411097202       15146.204411097164       15146.204411097164
11.888111888111883        3452.6019092872666       14999.973868655381       13307.90632886808        13451.361870423823       13452.684384901353       13452.684384901353
12.121212121212116        6175.767263169524        24566.122484636646       11649.04511286481        11756.519329750445       11759.164358705544       11759.164358705544
12.35431235431235         6175.767263169524        24566.122484636646       11649.04511286481        11756.519329750445       11759.164358705544       11759.164358705544
12.587412587412583        8248.036346604222        23287.111509924063       14095.773240252267       14238.612965917386       14242.196980151628       14242.196980151628
12.820512820512816        10320.30543003892        22008.10053521148        16542.501367639725       16720.706602084327       16725.22960159771        16725.22960159771
13.053613053613049        10320.30543003892        22008.10053521148        16542.501367639725       16720.706602084327       16725.22960159771        16725.22960159771
13.286713286713281        12130.79892672546        22710.99943546049        14619.164377830455       14788.901066846822       14791.435234636787       14791.435234636787
13.519813519813518        13941.292423412          23413.8983357095         12695.827388021185       12857.095531609315       12857.640867675862       12857.640867675862
13.75291375291375         13941.292423412          23413.8983357095         12695.827388021185       12857.095531609315       12857.640867675862       12857.640867675862
13.986013986013985        19695.772133463524       26458.666190872224       13366.332784537402       13478.435799528255       13478.708467561404       13478.708467561404
14.219114219114218        25450.25184351505        29503.43404603495        14036.83818105362        14099.776067447197       14099.776067446946       14099.776067446946
14.452214452214449        25450.25184351505        29503.43404603495        14036.83818105362        14099.776067447197       14099.776067446946       14099.776067446946
14.68531468531468         15300.104127254828       20191.47482167554        13369.520719058282       13470.957797492569       13470.95779749247        13470.95779749247
14.918414918414914        5149.956410994606        10879.515597316135       12702.203257062945       12842.13952753794        12842.139527537995       12842.139527537995
15.151515151515147        5149.956410994606        10879.515597316135       12702.203257062945       12842.13952753794        12842.139527537995       12842.139527537995
15.38461538461538         5380.505717100019        11111.53605562566        10947.41602591396        11209.003818862462       11209.003818862493       11209.003818862493
15.617715617715614        5611.055023205432        11343.556513935187       9192.628794764974        9575.868110186984        9575.868110186992        9575.868110186992
15.850815850815845        5611.055023205432        11343.556513935187       9192.628794764974        9575.868110186984        9575.868110186992        9575.868110186992
16.08391608391608         9977.67645149637         13036.188270513101       9233.998958330569        9488.257026305528        9488.25702630551         9488.25702630551
16.317016317016314        14344.29787978731        14728.820027091015       9275.369121896163        9400.645942424073        9400.64594242403         9400.64594242403
16.55011655011654         14344.29787978731        14728.820027091015       9275.369121896163        9400.645942424073        9400.64594242403         9400.64594242403
16.783216783216776        9767.020427383899        10171.035028905213       8654.995878939499        8761.196991498267        8761.538824436635        8764.273488515504
17.01631701631701         5189.74297498049         5613.250030719411        8034.622635982834        8121.748040572462        8122.43170644924         8127.90103460698
17.24941724941724         5189.74297498049         5613.250030719411        8034.622635982834        8121.748040572462        8122.43170644924         8127.90103460698
17.482517482517476        5185.298515612294        5447.476810602027        7792.273231354845        7918.497417894163        7918.839250832576        7921.573914911445
17.71561771561771         5180.8540562440985       5281.703590484643        7549.923826726856        7715.246795215864        7715.246795215911        7715.246795215911
17.948717948717942        5180.8540562440985       5281.703590484643        7549.923826726856        7715.246795215864        7715.246795215911        7715.246795215911
18.181818181818173        3083.4884803073355       3136.0128397104054       8495.014541021612        8795.884860702065        8795.884860702197        8795.884860702197
18.41491841491841         986.1229043705724        990.3220889361671        9440.105255316368        9876.522926188265        9876.522926188483        9876.522926188483
18.648018648018645        986.1229043705724        990.3220889361671        9440.105255316368        9876.522926188265        9876.522926188483        9876.522926188483
18.881118881118876        7666.968596978016        7671.9340629821245       8639.840338525828        9010.805986254134        9010.805986254272        9010.805986254272
19.11421911421911         14347.81428958546        14353.546037028082       7839.57542173529         8145.089046320003        8145.089046320063        8145.089046320063
19.347319347319342        14347.81428958546        14353.546037028082       7839.57542173529         8145.089046320003        8145.089046320063        8145.089046320063
19.580419580419576        9999.994447075736        10603.915230813262       7767.315212811017        7979.5297196524025       7979.529719652473        7979.529719652473
19.813519813519807        5652.174604566015        6854.284424598442        7695.055003886744        7813.970392984803        7813.970392984885        7813.970392984885
20.04662004662004         5652.174604566015        6854.284424598442        7695.055003886744        7813.970392984803        7813.970392984885        7813.970392984885
20.279720279720273        10025.456293821235       10751.266166586154       8090.0621356669035       8300.84244212616         8300.842442126204        8300.842442126204
20.51282051282051         14398.737983076455       14648.247908573867       8485.069267447063        8787.714491267518        8787.714491267525        8787.714491267525
20.745920745920742        14398.737983076455       14648.247908573867       8485.069267447063        8787.714491267518        8787.714491267525        8787.714491267525
20.979020979020977        12081.905626186952       13875.502599961486       7374.833927165317        7704.625412697876        7704.625412697853        7704.625412697853
21.21212121212121         9765.073269297447        13102.757291349106       6264.5985868835705       6621.536334128234        6621.536334128181        6621.536334128181
21.445221445221442        9765.073269297447        13102.757291349106       6264.5985868835705       6621.536334128234        6621.536334128181        6621.536334128181
21.678321678321677        12334.215306883685       14003.486812466588       7158.544864056293        7510.371214404564        7510.371214404511        7510.371214404511
21.91142191142191         14903.357344469925       14904.216333584072       8052.491141229015        8399.206094680894        8399.206094680841        8399.206094680841
22.144522144522142        14903.357344469925       14904.216333584072       8052.491141229015        8399.206094680894        8399.206094680841        8399.206094680841
22.377622377622373        7729.456261212873        7731.763983899132        6347.2318362947035       7121.984005839           7121.9840058390155       7121.9840058390155
22.610722610722608        555.5551779558216        559.3116342141911        4641.972531360392        5844.761916997106        5844.7619169971895       5844.7619169971895
22.84382284382284         555.5551779558216        559.3116342141911        4641.972531360392        5844.761916997106        5844.7619169971895       5844.7619169971895
23.07692307692307         303.2192949188991        604.6760313344332        4038.660179905576        4791.543119062413        4792.517957780532        4792.517957780532
23.3100233100233          50.88341188197654        650.0404284546754        3435.34782845076         3738.3243211277213       3740.2739985638746       3740.2739985638746
23.54312354312353         50.88341188197654        650.0404284546754        3435.34782845076         3738.3243211277213       3740.2739985638746       3740.2739985638746
23.776223776223766        280.1129535438996        579.978468016554         4695.7419948918505       5092.139728411254        5093.1145671294          5093.1145671294
24.009324009324           509.3424952058227        509.91650757843246       5956.136161332941        6445.955135694787        6445.955135694926        6445.955135694926
24.242424242424235        509.3424952058227        509.91650757843246       5956.136161332941        6445.955135694787        6445.955135694926        6445.955135694926
24.47552447552447         3030.363162681157        4807.094041631298        5114.889255319745        5555.098430411743        5555.098430411831        5555.098430411831
24.708624708624708        5551.383830156491        9104.271575684163        4273.642349306549        4664.2417251287          4664.241725128736        4664.241725128736
24.94172494172493         5551.383830156491        9104.271575684163        4273.642349306549        4664.2417251287          4664.241725128736        4664.241725128736
25.174825174825166        3007.213567000962        4783.733532882617        3806.982507609046        4209.054221477677        4261.307521316909        4261.307521316909
25.4079254079254          463.04330384543346       463.19549008107          3340.3226659115435       3753.866717826654        3858.37331750508         3858.37331750508
25.641025641025628        463.04330384543346       463.19549008107          3340.3226659115435       3753.866717826654        3858.37331750508         3858.37331750508
25.87412587412586         465.4296968906947        617.217888628346         3806.2424637635895       4294.02179513438         4346.275094973633        4346.275094973633
26.1072261072261          467.8160899359559        771.2402871756221        4272.1622616156355       4834.176872442106        4834.176872442185        4834.176872442185
26.340326340326335        467.8160899359559        771.2402871756221        4272.1622616156355       4834.176872442106        4834.176872442185        4834.176872442185
26.573426573426566        257.0378027564005        519.364156087304         4403.933021549541        5031.1063734025065       5031.106373402609        5031.106373402609
26.8065268065268          46.25951557684501        267.48802499898574       4535.703781483447        5228.035874362906        5228.035874363033        5228.035874363033
27.03962703962703         46.25951557684501        267.48802499898574       4535.703781483447        5228.035874362906        5228.035874363033        5228.035874363033
27.272727272727263        2336.0330961797117       2446.6482468681143       3190.9115276731745       3964.6151693454585       3964.615169345564        3964.615169345564
27.505827505827494        4625.8066767825785       4625.808468737243        1846.119273862903        2701.194464328011        2701.194464328095        2701.194464328095
27.73892773892773         4625.8066767825785       4625.808468737243        1846.119273862903        2701.194464328011        2701.194464328095        2701.194464328095
27.97202797202796         2315.2417042260363       2315.242625934556        2018.231845555253        2851.720345722326        2851.8226216276244       2851.8226216276244
28.205128205128194        4.676731669494462        4.676783131869069        2190.344417247603        3002.2462271166414       3002.4507789271543       3002.4507789271543
28.438228438228425        4.676731669494462        4.676783131869069        2190.344417247603        3002.2462271166414       3002.4507789271543       3002.4507789271543
28.67132867132866         4.653348265818925        9.944020870636562        1830.4680908235632       2535.7886010504844       2535.890876955793        2535.890876955793
28.904428904428894        4.629964862143388        15.211258609404055       1470.5917643995235       2069.330974984328        2069.330974984432        2069.330974984432
29.13752913752912         4.629964862143388        15.211258609404055       1470.5917643995235       2069.330974984328        2069.330974984432        2069.330974984432
29.370629370629352        2314.9849958342616       2320.302217777457        1462.5249156920706       2721.7534086239866       2742.3712084098183       2742.3712084098183
29.60372960372959         4625.34002680638         4625.393176945509        1454.4580669846177       3374.1758422636453       3415.4114418352046       3415.4114418352046
29.83682983682982         4625.34002680638         4625.393176945509        1454.4580669846177       3374.1758422636453       3415.4114418352046       3415.4114418352046
30.069930069930056        6938.058122606634        6938.091955091933        7193.0182487053335       3480.185914439455        3503.7273359635883       3503.7273359635883
30.30303030303029         9250.776218406889        9250.790733238357        12931.578430426049       3586.195986615264        3592.043230091972        3592.043230091972
30.536130536130525        9250.776218406889        9250.790733238357        12931.578430426049       3586.195986615264        3592.043230091972        3592.043230091972
30.769230769230756        6938.060689621043        6938.067947240477        10804.56544889402        3531.476410515988        3534.4000322543816       3534.4000322543816
31.00233100233099         4625.345160835198        4625.345161242599        8677.552467361993        3476.756834416712        3476.756834416791        3476.756834416791
31.235431235431218        4625.345160835198        4625.345161242599        8677.552467361993        3476.756834416712        3476.756834416791        3476.756834416791
31.468531468531452        2312.952413458405        2312.9524246144206       7468.026408725668        3027.4866577868183       3029.5051475268197       3029.5051475268197
31.701631701631683        0.5596660816114024       0.5596879862421944       6258.500350089344        2578.2164811569246       2582.253460636848        2582.253460636848
31.934731934731918        0.5596660816114024       0.5596879862421944       6258.500350089344        2578.2164811569246       2582.253460636848        2582.253460636848
32.16783216783215         0.5136441849364412       0.5136551981971631       5063.122068184159        2474.15490649427         2476.173396234286        2476.173396234286
32.40093240093238         0.46762228826147995      0.4676224101521318       3867.7437862789734       2370.093331831616        2370.093331831724        2370.093331831724
32.63403263403262         0.46762228826147995      0.4676224101521318       3867.7437862789734       2370.093331831616        2370.093331831724        2370.093331831724
32.86713286713285         5088.107537273299        5089.434307205795        9025.891815871413        2823.640906137321        2824.797818888344        2824.797818888344
33.10023310023308         10175.747452258338       10178.40099200144        14184.039845463854       3277.188480443026        3279.502305944964        3279.502305944964
33.333333333333314        10175.747452258338       10178.40099200144        14184.039845463854       3277.188480443026        3279.502305944964        3279.502305944964
33.566433566433545        5087.876293192603        5089.203063064339        7184.402310164437        2252.5741469904215       2254.5744491369037       2254.5744491369037
33.79953379953378         0.005134126868988775     0.005134127239286602     184.76477486501975       1227.9598135378167       1229.6465923288433       1229.6465923288433
34.03263403263402         0.005134126868988775     0.005134127239286602     184.76477486501975       1227.9598135378167       1229.6465923288433       1229.6465923288433
34.26573426573425         0.002567086561448681     0.003032543672257242     103.56472809929194       980.9919605506988        985.0686605828469        985.0686605828469
34.49883449883448         4.62539085871383E-8      9.309601052278815E-4     22.364681333564125       734.0241075635809        740.4907288368504        740.4907288368504
34.731934731934714        4.62539085871383E-8      9.309601052278815E-4     22.364681333564125       734.0241075635809        740.4907288368504        740.4907288368504
34.965034965034945        0.025439626773891597     0.030561033593499473     778.9194454476033        1595.738179476993        1598.9714901136822       1598.9714901136822
35.19813519813519         0.05087920729387461      0.06019110708177106      1535.4742095616425       2457.4522513904053       2457.452251390514        2457.452251390514
35.43123543123542         0.05087920729387461      0.06019110708177106      1535.4742095616425       2457.4522513904053       2457.452251390514        2457.452251390514
35.66433566433565         23.152141816234845       23.15681641919791        915.7961601441714        1999.34565495003         2033.5669821279732       2033.5669821279732
35.89743589743589         46.253404425175816       46.25344173131405        296.11811072670037       1541.2390585096546       1609.6817128654325       1609.6817128654325
36.130536130536115        46.253404425175816       46.25344173131405        296.11811072670037       1541.2390585096546       1609.6817128654325       1609.6817128654325
36.363636363636346        23.357992315180848       23.358188622591175       324.240317631268         1337.6543912993566       1378.7325587456985       1378.7325587456985
36.59673659673659         0.46258020518588094      0.46293551386830195      352.3625245358357        1134.0697240890586       1147.7834046259643       1147.7834046259643
36.82983682983682         0.46258020518588094      0.46293551386830195      352.3625245358357        1134.0697240890586       1147.7834046259643       1147.7834046259643
37.06293706293705         0.4653322821756379       0.4672863803761418       1545.1162499416744       1221.048206400898        1228.5244781144759       1228.5244781144759
37.29603729603729         0.4680843591653948       0.4716372468839817       2737.869975347513        1308.026688712737        1309.2655516029874       1309.2655516029874
37.529137529137515        0.4680843591653948       0.4716372468839817       2737.869975347513        1308.026688712737        1309.2655516029874       1309.2655516029874
37.762237762237746        231.5010182830743        231.50279472693583       1612.4940506408848       1228.5856924783125       1229.2051239234502       1229.2051239234502
37.99533799533799         462.5339522069832        462.5339522069877        487.11812593425657       1149.1446962438881       1149.144696243913        1149.144696243913
38.22843822843822         462.5339522069832        462.5339522069877        487.11812593425657       1149.1446962438881       1149.144696243913        1149.144696243913
38.46153846153846         231.26698174124195       231.27851096989133       275.78625277316246       915.8659272882873        917.6601410251981        918.2302215121053
38.694638694638684        1.1275500671504128E-5    0.023069732794973898     64.45437961206831        682.5871583326864        686.1755858064834        687.3157467802978
38.927738927738915        1.1275500671504128E-5    0.023069732794973898     64.45437961206831        682.5871583326864        686.1755858064834        687.3157467802978
39.160839160839146        0.028220440073954276     0.03974966872289736      200.6777105637132        1285.2765179670882       1289.9074146345931       1290.4774951215004
39.393939393939384        0.05642960464723705      0.05642960465082082      336.9010415153581        1887.96587760149         1893.6392434627028       1893.6392434627028
39.627039627039615        0.05642960464723705      0.05642960465082082      336.9010415153581        1887.96587760149         1893.6392434627028       1893.6392434627028
39.86013986013985         0.028261055742199732     0.028262284668359283     168.52558173370252       1523.6611905078898       1534.4638453791326       1534.4638453791326
40.093240093240084        9.250683716241595E-5     9.49646858977438E-5      0.1501219520469453       1159.3565034142894       1175.2884472955627       1175.2884472955627
40.326340326340315        9.250683716241595E-5     9.49646858977438E-5      0.1501219520469453       1159.3565034142894       1175.2884472955627       1175.2884472955627