% Model:              Cav_Hex_Unif_flux_v5.1.1 - Lin. Distn.mph
% Version:            COMSOL 5.5.0.359
% Date:               Nov 25 2021, 14:18
% Dimension:          1
% Nodes:              221
% Expressions:        6
% Description:        Line graph
% x                       Height                   Height                   Height                   Height                   Height                   Height
0                         318.2896506446147        318.27139118974316       318.2687073454697        318.26960880910866       318.2688416338478        318.26899516554295
0.10342840044574116       317.4415219727857        317.4769403403449        317.482141652451         317.48040081800684       317.4818829112807        317.4816015683852
0.2068568008914823        316.59339330095673       316.6824894909467        316.69557595943223       316.69119282690497       316.6949241887136        316.69420797122746
0.3102852013372235        315.74526462912775       315.88803864154846       315.9090102664135        315.90198483580315       315.90796546614655       315.9068143740697
0.4137136017829646        314.89713595729876       315.09358779215023       315.1224445733948        315.11277684470133       315.12100674357947       315.11942077691197
0.5208099198925301        314.22426783076526       314.4633549596877        314.4985243835127        314.48675570987075       314.49680651313804       314.4948759080356
0.6279062380020956        313.55139970423176       313.8331221272251        313.8746041936306        313.86073457504017       313.8726062826966        313.8703310391592
0.7350025561116612        312.87853157769825       313.2028892947626        313.2506840037486        313.23471344020953       313.2484060522552        313.2457861702828
0.8420988742212266        312.20566345116475       312.5726564623001        312.6267638138665        312.60869230537895       312.62420582181375       312.6212413014065
0.9491951923307923        312.7700430040521        313.10178817529186       313.1507588704598        313.1344114848372        313.1484979167999        313.1457964611822
1.0562915104403576        313.33442255693956       313.63091988828364       313.67475392705313       313.6601306642955        313.672790011786         313.67035162095794
1.1633878285499235        313.898802109827         314.16005160127537       314.19874898364645       314.1858498437538        314.19708210677214       314.19490678073373
1.270484146659489         314.4631816627144        314.68918331426715       314.7227440402398        314.711569023212         314.7213742017583        314.71946194050946
1.381248382432879         320.43505230195535       320.2824479551541        320.2604958952991        320.2678978388701        320.26193107303726       320.2629915143392
1.4920126182062694        326.40692294119634       325.8757125960411        325.7982477503584        325.82422665452816       325.8024879443162        325.8065210881689
1.6027768539796599        332.37879358043733       331.4689772369281        331.3359996054178        331.3805554701862        331.34304481559525       331.35005066199864
1.7135410897530499        338.35066421967826       337.06224187781504       336.87375146047714       336.93688428584426       336.8836016868742        336.8935802358284
1.82733239847553          343.8776750923304        342.23788354970446       341.9979750341264        342.07831772178235       342.01037810882593       342.02313871318114
1.94112370719801          349.4046859649825        347.4135252215939        347.1221986077757        347.21975115772045       347.1371545307777        347.1526971905339
2.05491501592049          354.93169683763466       352.5891668934833        352.24642218142503       352.3611845936586        352.2639309527294        352.2822556678866
2.1687063246429705        360.4587077102868        357.76480856537273       357.3706457550743        357.5026180295967        357.3907073746812        357.41181414523936
2.2824976333654505        367.44445222801943       364.30556838025154       363.8463344201417        364.0001703775454        363.8695335744126        363.89423433959263
2.3962889420879305        374.430196745752         370.8463281951304        370.32202308520914       370.4977227254941        370.348359774144         370.3766545339459
2.5100802508104105        381.4159412634847        377.3870880100093        376.79771175027656       376.9952750734428        376.82718597387543       376.85907472829916
2.623871559532891         388.40168578121734       383.9278478248881        383.273400415344         383.4928274213915        383.3060121736068        383.34149492265243
2.7387102623290205        395.3390873805677        390.4225905729297        389.70349999787845       389.9447291951684        389.739106048195         389.77827264394256
2.85354896512515          402.2764889799181        396.91733332097124       396.1335995804129        396.3966309689453        396.17219992278325       396.2150503652326
2.968387667921279         409.2138905792685        403.4120760690128        402.5636991629474        402.8485327427222        402.6052937973715        402.65182808652276
3.0832263707174086        416.15129217861886       409.9068188170544        408.99379874548185       409.30043451649914       409.0383876719597        409.0886058078129
3.198065073513538         424.4019519374858        417.6344221996354        416.64307375276246       416.9758779638179        416.6906011905716        416.7455792405302
3.3129037763096676        432.6526116963528        425.3620255822165        424.29234876004307       424.65132141113656       424.3428147091836        424.40255267324756
3.4277424791057967        440.90327145521974       433.0896289647976        431.94162376732373       432.32676485845525       431.9950282277955        432.05952610596495
3.542581181901926         449.1539312140867        440.81723234737865       439.59089877460434       440.00220830577393       439.6472417464074        439.7164995386823
3.6574198846980557        456.1802137667537        447.4001940082251        446.10611549062696       446.53985109400344       446.16479661510425       446.2383017780221
3.772258587494185         463.20649631942064       453.9831556690716        452.6213322066495        453.07749388223283       452.6823514838011        452.76010401736187
3.887097290290315         470.2327788720876        460.56611732991803       459.1365489226721        459.6151366704623        459.19990635249786       459.28190625670163
4.001935993086445         477.2590614247546        467.1490789907645        465.6517656386947        466.1527794586917        465.7174612211947        465.80370849604145
4.116774695882574         485.02309795298794       474.432412056878         472.8582053683857        473.38411047710713       472.92540833591306       473.016629369997
4.231613398678704         492.78713448122136       481.71574512299145       480.06464509807677       480.61544149552253       480.1333554506315        480.2295502439526
4.346452101474833         500.5511710094547        488.9990781891049        487.27108482776777       487.846772513938         487.34130256534985       487.44247111790816
4.461290804270963         508.31520753768814       496.2824112552184        494.47752455745876       495.0781035323534        494.5492496800682        494.6553919918637
4.576129507067092         514.9449035644868        502.5058609336419        500.63520962134146       501.25702941752405       500.70753759146595       500.81817203353523
4.690968209863222         521.5745995912855        508.72931061206543       506.79289468522416       507.43595530269477       506.8658255028637        506.9809520752067
4.805806912659351         528.2042956180841        514.952760290489         512.9505797491069        513.6148811878654        513.0241134142614        513.1437321168783
4.920645615455481         534.8339916448828        521.1762099689125        519.1082648129895        519.7938070730361        519.1824013256592        519.3065121585497
5.03548431825161          540.693443668638         526.6800592300369        524.5532892357102        525.2576112141883        524.6275925115019        524.7557392115305
5.15032302104774          546.5528956923931        532.1839084911614        529.9983136584308        530.7214153553406        530.0727836973447        530.2049662645112
5.265161723843869         552.4123477161484        537.6877577522858        535.4433380811513        536.1852194964929        535.5179748831873        535.654193317492
5.380000426639999         558.2717997399036        543.1916070134102        540.8883625038719        541.6490236376451        540.9631660690301        541.1034203704727
5.494839129436129         564.2395151782175        548.8011574502102        546.4387419468387        547.2183894216041        546.512944404004         546.6574749690096
5.60967783223226          570.2072306165314        554.4107078870103        551.9891213898056        552.787755205563         552.062722738978         552.2115295675466
5.724516535028388         576.1749460548455        560.0202583238104        557.5395008327725        558.357120989522         557.612501073952         557.7655841660835
5.839355237824519         582.1426614931594        565.6298087606103        563.0898802757395        563.926486773481         563.162279408926         563.3196387646204
5.954193940620647         587.9738695526316        571.113543664542         568.516373628833         569.3714926511038        568.5877771051183        568.7493347596026
6.069032643416776         593.8050776121038        576.5972785684738        573.9428669819265        574.8164985287268        574.0132748013107        574.1790307545846
6.1838713462129045        599.6362856715759        582.0810134724056        579.36936033502          580.2615044063498        579.438772497503         579.6087267495667
6.298710049009033         605.4674937310482        587.5647483763373        584.7958536881135        585.7065102839726        584.8642701936953        585.0384227445488
6.4135487518051635        609.8800512396207        591.7163888930122        588.904727796194         589.8292700494118        588.9719819220315        589.1493472451118
6.528387454601292         614.2926087481933        595.8680294096871        593.0136019042745        593.9520298148509        593.0796936503679        593.2602717456748
6.6432261573974225        618.7051662567658        600.0196699263621        597.1224760123549        598.0747895802901        597.1874053787042        597.3711962462377
6.758064860193553         623.1177237653384        604.171310443037         601.2313501204354        602.1975493457293        601.2951171070404        601.4821207468007
6.872903562989682         627.8041080692406        608.5828559888271        605.5987876924186        606.5795111120052        605.6607948021265        605.8513337869135
6.987742265785812         632.4904923731428        612.9944015346172        609.9662252644017        610.9614728782811        610.0264724972126        610.2205468270265
7.102580968581942         637.176876677045         617.4059470804073        614.3336628363849        615.3434346445571        614.3921501922987        614.5897598671395
7.217419671378071         641.8632609809472        621.8174926261973        618.701100408368         619.725396410833         618.7578278873848        618.9589729072525
7.3322583741742005        646.7130295017255        626.3849622918037        623.2245526224502        624.2636078000903        623.2789760493685        623.4839084333386
7.44709707697033          651.5627980225039        630.95243195741          627.7480048365323        628.8018191893477        627.8001242113521        628.0088439594247
7.5619357797664595        656.4125665432823        635.5199016230163        632.2714570506146        633.3400305786051        632.3212723733358        632.5337794855108
7.676774482562589         661.2623350640606        640.0873712886225        636.7949092646968        637.8782419678624        636.8424205353194        637.0587150115969
7.7916131853587185        665.2126897004127        643.809290157897         640.4822660510703        641.5774052912359        640.5275893159612        640.7470374880538
7.906451888154846         669.163044336765         647.5312090271714        644.1696228374437        645.2765686146092        644.212758096603         644.4353599645109
8.021290590950976         673.1133989731172        651.2531278964458        647.8569796238172        648.9757319379826        647.8979268772448        648.123682440968
8.136129293747105         677.0637536094694        654.9750467657202        651.5443364101907        652.6748952613559        651.5830956578866        651.8120049174249
8.250967996543235         680.6145202922061        658.3227820190353        654.8630804730267        656.0037951096168        654.8994201264438        655.1312144830285
8.365806699339366         684.1652869749428        661.6705172723505        658.1818245358627        659.3326949578777        658.215744595001         658.4504240486322
8.480645402135497         687.7160536576796        665.0182525256655        661.5005685986986        662.6615948061387        661.5320690635581        661.7696336142359
8.595484104931627         691.2668203404163        668.3659877789806        664.8193126615346        665.9904946543996        664.8483935321153        665.0888431798395
8.710322807727756         694.0349466353927        670.9760871520182        667.4071868992414        668.5862257223678        667.4343101331782        667.6770334330288
8.825161510523884         696.803072930369         673.5861865250558        669.9950611369482        671.181956790336         670.0202267342411        670.265223686218
8.940000213320012         699.5711992253454        676.1962858980934        672.582935374655         673.7776878583043        672.606143335304         672.8534139394071
9.05483891611614          702.3393255203217        678.8063852711309        675.1708096123618        676.3734189262724        675.1920599363668        675.4416041925964
9.169677618912269         705.3723637739754        681.6678151618256        678.0093539750668        679.2202177469842        678.0281654126709        678.2801792357374
9.284516321708399         708.4054020276292        684.5292450525203        680.8478983377718        682.067016567696         680.864270888975         681.1187542788784
9.399355024504528         711.438440281283         687.3906749432151        683.6864427004768        684.9138153884078        683.7003763652792        683.9573293220194
9.514193727300658         714.4714785349368        690.2521048339098        686.5249870631818        687.7606142091196        686.5364818415833        686.7959043651604
9.629032430096787         716.9851531015626        692.6231367942037        688.8768879917836        690.1194401000218        688.8863977152769        689.1478770226163
9.743871132892917         719.4988276681886        694.9941687544977        691.2287889203856        692.478265990924         691.2363135889703        691.4998496800722
9.858709835689046         722.0125022348144        697.3652007147915        693.5806898489875        694.8370918818263        693.5862294626638        693.851822337528
9.973548538485177         724.5261768014403        699.7362326750854        695.9325907775893        697.1959177727285        695.9361453363574        696.2037949949839
10.088387241281305        727.2734339679173        702.3285562392242        698.5051445500748        699.7757121140629        698.5062091825115        698.7760612534692
10.203225944077435        730.0206911343942        704.920879803363         701.0776983225601        702.3555064553973        701.0762730286654        701.3483275119545
10.318064646873564        732.767948300871         707.5132033675019        703.6502520950455        704.9353007967318        703.6463368748194        703.9205937704398
10.432903349669692        735.515205467348         710.1055269316407        706.222805867531         707.5150951380662        706.2164007209734        706.4928600289251
10.547742052465821        738.0081588974274        712.4589707945664        708.5591612943509        709.857939572284         708.5505006075283        708.8289569687649
10.662580755261951        740.5011123275069        714.8124146574921        710.8955167211709        712.2007840065017        710.8846004940832        711.1650539086047
10.77741945805808         742.9940657575864        717.1658585204178        713.231872147991         714.5436284407195        713.2187003806381        713.5011508484445
10.89225816085421         745.4870191876659        719.5193023833435        715.568227574811         716.8864728749373        715.552800267193         715.8372477882842
11.00709686365034         747.611761864062         721.5252064255404        717.5597226303584        718.8834333393424        717.5423121838828        717.828429990283
11.121935566446467        749.7365045404581        723.5311104677373        719.5512176859057        720.8803938037474        719.5318241005726        719.8196121922816
11.236774269242595        751.8612472168543        725.5370145099341        721.5427127414531        722.8773542681525        721.5213360172625        721.8107943942803
11.351612972038724        753.9859898932505        727.542918552131         723.5342077970005        724.8743147325577        723.5108479339523        723.801976596279
11.466451674834854        755.8884481326228        729.3398125099765        725.3186251108657        726.6637270253834        725.2936860149285        725.5862899026014
11.581290377630985        757.7909063719951        731.136706467822         727.1030424247308        728.4531393182093        727.0765240959049        727.3706032089237
11.696129080427117        759.6933646113673        732.9336004256675        728.887459738596         730.2425516110352        728.8593621768812        729.1549165152461
11.810967783223246        761.5958228507396        734.730494383513         730.6718770524612        732.031963903861         730.6422002578576        730.9392298215685
11.925806486019376        763.7783099933556        736.7926095969923        732.7201490033057        734.0859957007086        732.6887840467438        732.9874335249058
12.040645188815503        765.9607971359716        738.8547248104715        734.7684209541501        736.140027497556         734.73536783563          735.0356372282431
12.155483891611633        768.1432842785875        740.9168400239507        736.8166929049945        738.1940592944037        736.7819516245162        737.0838409315804
12.27032259440776         770.3257714212035        742.9789552374299        738.8649648558389        740.2480910912512        738.8285354134024        739.1320446349177
12.38516129720389         772.3545348717828        744.8959592984775        740.7691761485933        742.1578008269265        740.7313530150155        741.0363401876187
12.500000000000018        774.3832983223621        746.812963359525         742.6733874413475        744.0675105626018        742.6341706166286        742.9406357403197
12.614838702796145        776.4120617729413        748.7299674205726        744.5775987341017        745.9772202982771        744.5369882182417        744.8449312930207
12.729677405592275        778.4408252235206        750.6469714816202        746.481810026856         747.8869300339524        746.4398058198548        746.7492268457218
12.844516108388406        780.1654856673708        752.2767991884479        748.1008427594888        749.5106830212709        748.057724703003         748.3683830694055
12.959354811184536        781.890146111221         753.9066268952755        749.7198754921214        751.1344360085895        749.6756435861514        749.9875392930892
13.074193513980669        783.6148065550713        755.5364546021032        751.3389082247543        752.7581889959081        751.2935624692998        751.6066955167729
13.189032216776798        785.3394669989215        757.1662823089308        752.957940957387         754.3819419832267        752.9114813524482        753.2258517404566
13.303870919572928        787.1217775943145        758.8516084783745        754.6324513056825        756.0614153243474        754.5849482909422        754.900676793261
13.418709622369056        788.9040881897076        760.5369346478182        756.3069616539781        757.740888665468         756.2584152294364        756.5755018460653
13.533548325165185        790.6863987851007        762.2222608172618        757.9814720022737        759.4203620065887        757.9318821679304        758.2503268988696
13.648387027961313        792.4687093804938        763.9075869867055        759.6559823505692        761.0998353477094        759.6053491064246        759.925151951674
13.763225730757442        794.1815480511358        765.5275661738715        761.2656621252388        762.7143175031377        761.214044102427         761.5351981592248
13.87806443355357         795.8943867217778        767.1475453610376        762.8753418999083        764.3287996585661        762.8227390984293        763.1452443667756
13.992903136349698        797.6072253924198        768.7675245482036        764.485021674578         765.9432818139944        764.4314340944318        764.7552905743264
14.107741839145827        799.3200640630617        770.3875037353696        766.0947014492476        767.5577639694228        766.0401290904341        766.3653367818772
14.222580541941957        801.3518408933876        772.3095228763531        768.004580349703         769.4734877090223        767.9489173757363        768.2758454557728
14.337419244738086        803.3836177237135        774.2315420173366        769.9144592501584        771.3892114486216        769.8577056610384        770.1863541296684
14.452257947534216        805.4153945540394        776.15356115832          771.8243381506137        773.3049351882211        771.7664939463406        772.0968628035639
14.567096650330345        807.4471713843652        778.0755802993035        773.7342170510691        775.2206589278205        773.6752822316428        774.0073714774595
14.681935353126475        808.9571490286149        779.5040245872399        775.153629722069         776.644486798218         775.0939134980894        775.4273519942002
14.796774055922604        810.4671266728645        780.9324688751763        776.5730423930689        778.0683146686155        776.5125447645362        776.8473325109408
14.911612758718734        811.9771043171143        782.3609131631126        777.9924550640688        779.492142539013         777.9311760309828        778.2673130276814
15.026451461514862        813.4870819613639        783.789357451049         779.4118677350688        780.9159704094104        779.3498072974295        779.6872935444221
15.141290164310991        814.7645041863565        784.9982302529294        780.6131783205707        782.1211162401846        780.5505506225952        780.8892789590653
15.256128867107122        816.0419264113491        786.2071030548097        781.8144889060726        783.3262620709588        781.7512939477608        782.0912643737086
15.370967569903252        817.3193486363418        787.4159758566901        783.0157994915745        784.531407901733         782.9520372729264        783.2932497883517
15.485806272699381        818.5967708613344        788.6248486585705        784.2171100770764        785.7365537325072        784.1527805980921        784.4952352029949
15.600644975495511        819.9932288290776        789.946967715876         785.531085671259         787.0547863094184        785.4661873045943        785.8100921497096
15.71548367829164         821.3896867968207        791.2690867731815        786.8450612654415        788.3730188863296        786.7795940110965        787.1249490964244
15.830322381087774        822.7861447645638        792.5912058304871        788.159036859624         789.691251463241         788.0930007175987        788.4398060431392
15.945161083883903        824.1826027323069        793.9133248877926        789.4730124538066        791.0094840401522        789.4064074241008        789.7546629898541
16.05999978668003         825.5060681431255        795.1665438366442        790.7185534511783        792.2590790420938        790.6514514746857        791.0011027340157
16.174838489476162        826.829533553944         796.419762785496         791.9640944485498        793.5086740440355        791.8964955252706        792.2475424781775
16.28967719227229         828.1529989647624        797.6729817343477        793.2096354459214        794.7582690459772        793.1415395758554        793.4939822223391
16.40451589506842         829.4764643755809        798.9262006831993        794.455176443293         796.0078640479188        794.3865836264403        794.7404219665009
16.519354597864552        830.813860473505         800.1929652525957        795.7142366660465        797.271046791176         795.6452623490853        796.0005143044526
16.634193300660684        832.1512565714288        801.4597298219924        796.9732968888001        798.5342295344332        796.9039410717305        797.2606066424044
16.74903200345681         833.4886526693529        802.7264943913888        798.2323571115536        799.7974122776903        798.1626197943756        798.5206989803562
16.863870706252946        834.8260487672768        803.9932589607853        799.4914173343071        801.0605950209475        799.4212985170207        799.7807913183079
16.978709409049074        835.7401633041529        804.8592788081232        800.3522017311914        801.9242051377241        800.281895001865         800.6423471600483
17.093548111845198        836.654277841029         805.7252986554611        801.2129861280757        802.7878152545006        801.1424914867093        801.5039030017888
17.20838681464133         837.5683923779052        806.5913185027989        802.07377052496          803.6514253712771        802.0030879715536        802.3654588435292
17.323225517437457        838.4825069147813        807.4573383501369        802.9345549218442        804.5150354880536        802.8636844563979        803.2270146852695
17.438064220233585        839.7089755777436        808.6197021771885        804.0899764905437        805.6742433156668        804.0189933521423        804.383583323093
17.552902923029713        840.9354442407057        809.7820660042403        805.2453980592431        806.8334511432798        805.1743022478867        805.5401519609168
17.667741625825844        842.1619129036679        810.9444298312919        806.4008196279426        807.992658970893         806.329611143631         806.6967205987404
17.782580328621968        843.3883815666302        812.1067936583436        807.5562411966421        809.151866798506         807.4849200393754        807.853289236564
17.8974190314181          844.3522125994476        813.02073060195          808.4648149976794        810.0634011472059        808.393608472458         808.762887018333
18.012257734214227        845.3160436322651        813.9346675455565        809.3733887987166        810.9749354959058        809.3022969055407        809.6724848001019
18.12709643701036         846.2798746650826        814.8486044891631        810.2819625997538        811.8864698446056        810.2109853386233        810.5820825818707
18.241935139806486        847.2437056979           815.7625414327696        811.1905364007911        812.7980041933055        811.119673771706         811.4916803636397
18.356773842602617        848.0463809048164        816.523917557569         811.9474965696372        813.5574225302671        811.8768124384055        812.2495295257115
18.471612545398745        848.8490561117328        817.2852936823684        812.7044567384833        814.3168408672288        812.6339511051052        813.0073786877833
18.586451248194876        849.6517313186491        818.0466698071679        813.4614169073294        815.0762592041905        813.3910897718049        813.765227849855
18.701289950991008        850.4544065255654        818.8080459319673        814.2183770761756        815.8356775411521        814.1482284385045        814.5230770119268
18.816128653787136        850.9812167432375        819.3077138583035        814.7151290052639        816.3340434671395        814.6451459342898        815.0204196983354
18.930967356583263        851.5080269609095        819.8073817846396        815.2118809343524        816.8324093931269        815.1420634300753        815.5177623847441
19.04580605937939         852.0348371785815        820.3070497109758        815.7086328634407        817.3307753191144        815.6389809258606        816.0151050711527
19.160644762175522        852.5616473962535        820.806717637312         816.2053847925291        817.8291412451018        816.135898421646         816.5124477575613
19.27548346497165         853.1568389972806        821.3711072382984        816.7664323158926        818.3920227424807        816.6971532703851        817.0741358673542
19.39032216776778         853.7520305983077        821.9354968392847        817.3274798392563        818.9549042398595        817.2584081191244        817.6358239771471
19.50516087056391         854.3472221993347        822.4998864402711        817.8885273626198        819.5177857372383        817.8196629678636        818.19751208694
19.61999957336004         854.9424138003618        823.0642760412575        818.4495748859833        820.0806672346172        818.3809178166027        818.759200196733