% Model:              Cav_Hex_Unif_flux_v5.1.1 - Lin. Distn.mph
% Version:            COMSOL 5.5.0.359
% Date:               Nov 25 2021, 14:20
% Dimension:          1
% Nodes:              313
% Expressions:        6
% Description:        Line graph
% x                       Height                   Height                   Height                   Height                   Height                   Height
0                         318.0902728460728        318.0735161385399        318.0718681785048        318.0717791582006        318.07177542304345       318.0717754961847
1.261441531054717         318.0537037013305        318.0439575727222        318.0429676979227        318.0429140768003        318.0429118877392        318.0429119290784
2.522883062109434         318.0171345565882        318.01439900690445       318.01406721734054       318.0140489953999        318.01404835243494       318.0140483619721
3.784324593164151         317.98056541184593       317.9848404410867        317.98516673675834       317.98518391399955       317.9851848171307        317.9851847948657
5.045766124218868         317.9439962671036        317.95528187526895       317.9562662561762        317.95631883259915       317.95632128182643       317.95632122775936
6.31447935928039          317.7515552752827        317.80009749840036       317.8046491116185        317.80489257248973       317.8049031602203        317.80490294447077
7.58319259434191          317.5591142834618        317.6449131215318        317.6530319670608        317.65346631238026       317.6534850386141        317.65348466118223
8.851905829403432         317.36667329164084       317.48972874466324       317.50141482250314       317.50204005227084       317.502066917008         317.50206637789364
10.120619064464954        317.1742322998199        317.33454436779465       317.34979767794545       317.3506137921614        317.35064879540187       317.35064809460505
11.389332299526474        316.65208605222176       316.9141074526142        316.93954882728303       316.94090157300167       316.94095956093724       316.9409583989247
12.658045534587998        316.12993980462363       316.4936705374338        316.52929997662056       316.5311893538419        316.5312703264727        316.53126870324434
13.92675876964952         315.60779355702556       316.0732336222533        316.1190511259581        316.1214771346822        316.1215810920081        316.1215790075639
15.195472004711043        315.08564730942743       315.65279670707287       315.7088022752956        315.71176491552245       315.7118918575435        315.71188931188357
16.47525274294612         314.83129383299377       315.4559473992064        315.518881183163         315.52216733499586       315.5223080758931        315.52230527380607
17.755033481181197        314.57694035656016       315.25909809134          315.3289600910304        315.3325697544693        315.33272429424267       315.3327212357286
19.03481421941627         314.3225868801265        315.06224878347354       315.13903899889783       315.1429721739428        315.14314051259225       315.1431371976512
20.314594957651348        314.06823340369283       314.8653994756071        314.9491179067652        314.95337459341624       314.95355673094184       314.95355315957374
21.596273128568182        314.57100933008223       315.26968756062143       315.34492542024833       315.3487095847357        315.34887117923756       315.3488680459588
22.877951299485012        315.0737852564717        315.6739756456358        315.74073293373146       315.7440445760551        315.7441856275333        315.74418293234385
24.159629470401846        315.57656118286116       316.0782637306502        316.1365404472146        316.1393795673745        316.13950007582906       316.13949781872884
25.441307641318684        316.07933710925056       316.4825518156645        316.53234796069773       316.5347145586939        316.5348145241248        316.5348127051139
26.723934528576393        316.8277236720943        317.0917824730325        317.12940971343477       317.1310709567174        317.13114020918687       317.13113900945797
28.006561415834103        317.57611023493797       317.70101313040044       317.7264714661718        317.7274273547408        317.72746589424895       317.72746531380204
29.289188303091816        318.32449679778165       318.3102437877684        318.32353321890884       318.32378375276426       318.32379157931103       318.3237916181461
30.571815190349525        319.0728833606254        318.91947444513636       318.92059497164587       318.92014015078774       318.9201172643731        318.9201179224902
31.85491643577768         320.268228647232         319.87244035461924       319.8491415874498        319.8474149657298        319.84733822057893       319.8473399425968
33.13801768120583         321.4635739338386        320.8254062641021        320.7776882032537        320.77468978067185       320.7745591767848        320.7745619627034
34.42111892663399         322.6589192204452        321.778372173585         321.7062348190576        321.7019645956139        321.7017801329906        321.70178398281
35.70422017206214         323.8542645070518        322.7313380830679        322.63478143486157       322.62923941055595       322.62900108919644       322.62900600291664
36.98732141749029         325.97292585743924       324.41338334908545       324.2728235255918        324.2649823284876        324.26464553932317       324.264652419399
38.27042266291845         328.0915872078266        326.095428615103         325.910865616322         325.9007252464192        325.9002899894499        325.90029883588136
39.5535239083466          330.21024855821395       327.77747388112056       327.54890770705214       327.5364681643508        327.5359344395766        327.5359452523637
40.836625153774754        332.3289099086013        329.4595191471381        329.18694979778235       329.17221108228244       329.1715788897033        329.1715916688461
42.12020075737334         335.16528670862795       331.72538323589185       331.38285210295834       331.36470137508945       331.36392409678757       331.36393970726124
43.403776360971925        338.00166350865464       333.99124732464554       333.5787544081343        333.5571916678965        333.5562693038719        333.5562877456764
44.68735196457052         340.83804030868134       336.2571114133993        335.77465671331026       335.7496819607035        335.74861451095614       335.7486357840915
45.9709275681691          343.674417108708         338.52297550215303       337.97055901848626       337.94217225351053       337.94095971804046       337.94098382250667
47.25450317176769         346.4368975514735        340.74985318418845       340.1142824796001        340.08225051797734       340.0808820002726        340.0809092188168
48.53807877536628         349.199377994239         342.9767308662239        342.25800594071393       342.22232878244415       342.2208042825047        342.220834615127
49.82165437896488         351.9618584370045        345.2036085482593        344.4017294018277        344.362407046911         344.3607265647368        344.36076001143715
51.105229982563465        354.72433887977          347.4304862302947        346.54545286294154       346.5024853113778        346.50064884696894       346.5006854077473
52.38880558616206         357.6353452582542        349.8059225990485        348.81146616917295       348.7642721225584        348.76225726364487       348.7622972939521
53.67238118976066         360.54635163673834       352.18135896780217       351.0774794754044        351.026058933739         351.02386568032085       351.0239091801569
54.955956793359256        363.45735801522255       354.55679533655587       353.34349278163586       353.2878457449196        353.28547409699684       353.28552106636175
56.23953239695784         366.3683643937067        356.9322317053096        355.6095060878673        355.54963255610016       355.54708251367276       355.5471329525666
57.523108000556434        369.5016650943539        359.5535338469864        358.060824595543         357.9955901620946        357.9928128381546        357.9928676752046
58.806683604155026        372.6349657950011        362.17483598866323       360.5121431032187        360.441547768089         360.43854316263634       360.4386023978426
60.09025920775361         375.7682664956483        364.79613813034007       362.96346161089446       362.88750537408345       362.8842734871181        362.88433712048067
61.373834811352204        378.90156719629545       367.41744027201685       365.41478011857015       365.33346298007785       365.3300038115999        365.3300718431187
62.657410414950796        381.9080288477412        369.99442251053097       367.78031516165805       367.69286427954285       367.68913882566414       367.6892121519822
63.94098601854939         384.91449049918697       372.5714047490451        370.14585020474595       370.0522655790079        370.0482738397284        370.0483524608457
65.22456162214799         387.9209521506327        375.14838698755926       372.51138524783386       372.41166687847294       372.4074088537927        372.4074927697092
66.50813722574658         390.92741380207843       377.7253692260734        374.87692029092176       374.77106817793793       374.7665438678569        374.76663307857274
67.79171282934519         393.8827959473492        380.27284281472174       377.2026584632979        377.09113481074496       377.08636631673926       377.08646019880644
69.07528843294376         396.83817809262007       382.8203164033701        379.528396635674         379.41120144355193       379.4061887656216        379.4062873190402
70.35886403654234         399.7935602378909        385.36778999201846       381.85413480805016       381.73126807635896       381.72601121450396       381.72611443927394
71.64243964014094         402.7489423831617        387.9152635806668        384.1798729804263        384.051334709166         384.0458336633863        384.04594155950764
72.92601524373954         405.4314693668949        390.26822497722935       386.3034594026963        386.1688370335932        386.16307925702176       386.16319177645585
74.20959084733813         408.11399635062804       392.62118637379183       388.42704582496634       388.2863393580204        388.28032485065717       388.28044199340405
75.49316645093671         410.7965233343612        394.97414777035436       390.55063224723636       390.4038416824477        390.3975704442926        390.39769221035226
76.77674205453532         413.4790503180944        397.3271091669169        392.6742186695064        392.5213440068749        392.5148160379281        392.51494242730047
78.0603176581339          415.772004638995         399.35051779307315       394.49011372519016       394.333857240324         394.32720759349434       394.3273351158903
79.34389326173248         418.0649589598956        401.3739264192294        396.306008780874         396.146370473773         396.13959914906053       396.1397278044802
80.62746886533107         420.3579132807962        403.39733504538566       398.12190383655775       397.95888370722207       397.9519907046267        397.95212049307
81.91104446892965         422.6508676016968        405.4207436715419        399.9377988922416        399.77139694067114       399.764382260193         399.7645131816599
83.19462007252824         424.1986271219705        406.7851562170522        401.1561887649041        400.99345834622306       400.9866877573793        400.98681058785155
84.47819567612684         425.74638664224415       408.14956876256247       402.37457863756663       402.215519751775         402.2089932545656        402.20910799404317
85.76177127972544         427.2941461625178        409.5139813080728        403.5929685102291        403.4375811573269        403.43129875175197       403.4314054002348
87.04534688332403         428.84190568279143       410.8783938535831        404.8113583828916        404.65964256287884       404.6536042489383        404.65370280642645
88.32892248692262         431.79661570691593       413.6207032439942        407.2015989019046        407.02596288628934       407.0188064620422        407.0189299685694
89.61249809052121         434.75132573104054       416.3630126344053        409.5918394209177        409.3922832096998        409.3840086751462        409.38415713071237
90.89607369411979         437.70603575516503       419.1053220248165        411.9820799399307        411.7586035331104        411.74921088825016       411.7493842928553
92.17964929771838         440.6607457792896        421.84763141522757       414.37232045894376       414.12492385652087       414.1144131013541        414.1146114549983
93.46322490131698         443.4445682259302        424.4244806809557        416.61883760665927       416.35433813932696       416.3431517858328        416.3433605793422
94.74680050491556         446.22839067257087       427.0013299466839        418.8653547543747        418.583752422133         418.57189047031153       418.572109703686
96.03037610851415         449.0122131192115        429.578179212412         421.11187190209023       420.8131667049391        420.8006291547903        420.8008588280299
97.31395171211274         451.7960355658521        432.15502847814014       423.35838904980574       423.04258098774517       423.02936783926896       423.0296079523738
98.59752731571133         454.53617061371585       434.70349218951276       425.56951556251147       425.24240264157345       425.2287121190452        425.22895997311826
99.88110291930994         457.2763056615795        437.2519559008854        427.78064207521726       427.4422242954017        427.4280563988216        427.42831199386274
101.16467852290853        460.01644070944326       439.800419612258         429.99176858792305       429.6420459492299        429.6274006785979        429.62766401460715
102.44825412650712        462.75657575730696       442.3488833236306        432.2028951006288        431.8418676030582        431.8267449583742        431.8270160353516
103.73182973010573        464.9706233491023        444.41594506287083       433.99225849207903       433.6212863786534        433.60571446541474       433.60599375214133
105.01540533370432        467.1846709408976        446.483006802111         435.7816218835293        435.4007051542486        435.3846839724552        435.384971468931
106.29898093730291        469.39871853269295       448.55006854135115       437.57098527497953       437.1801239298439        437.1636534794957        437.16394918572064
107.5825565409015         471.6127661244883        450.61713028059137       439.3603486664298        438.9595427054391        438.9426229865362        438.94292690251035
108.8661321445001         473.38773566715724       452.28818242857744       440.80125618163277       440.3882997673367        440.37084889446504       440.37116364417005
110.14970774809868        475.1627052098262        453.95923457656363       442.24216369683575       441.81705682923433       441.7990748023939        441.7994003858298
111.43328335169727        476.93767475249507       455.6302867245497        443.6830712120387        443.24581389113195       443.22730071032265       443.2276371274895
112.71685895529586        478.712644295164         457.30133887253584       445.1239787272417        444.67457095302956       444.6555266182515        444.6558738691493
114.00043455889444        480.14990411524184       458.6617794122179        446.2922785166026        445.83307935179283       445.81359972118          445.8139559129004
115.28401016249303        481.5871639353196        460.0222199519           447.4605783059634        446.99158775055616       446.97167282410857       446.97203795665143
116.56758576609165        483.02442375539744       461.3826604915821        448.6288780953243        448.15009614931944       448.1297459270371        448.1301200004025
117.85116136969023        484.46168357547526       462.7431010312642        449.79717788468514       449.3086045480827        449.28781902996565       449.28820204415354
119.13473697328882        486.36539357411846       464.54700379661256       451.3479741919387        450.84224265386445       450.8208095626393        450.82120310157836
120.41831257688743        488.26910357276165       466.3509065619609        452.8987704991923        452.37588075964624       452.35380009531286       452.3542041590031
121.70188818048602        490.1728135714048        468.1548093273093        454.4495668064459        453.909518865428         453.8867906279865        453.88720521642784
122.9854637840846         492.076523570048         469.95871209265766       456.0003631136995        455.44315697120976       455.41978116066014       455.4202062738526
124.26903938768322        492.9365737845234        470.77467625986134       456.7054055028912        456.1371831755789        456.11340417353233       456.113832396021
125.55261499128181        493.7966239989988        471.59064042706495       457.4104478920829        456.83120937994806       456.8070271864045        456.8074585181895
126.8361905948804         494.6566742134742        472.40660459426863       458.1154902812746        457.52523558431716       457.50065019927666       457.5010846403579
128.119766198479          495.5167244279496        473.22256876147225       458.8205326704663        458.2192617886863        458.19427321214886       458.1947107625263
129.4033418020776         497.90544689840584       475.5009563929755        460.7690155878768        460.1482789009646        460.1226789704167        460.1231180550623
130.68691740567618        500.2941693688621        477.77934402447886       462.71749850528727       462.0772960132429        462.0510847286845        462.0515253475983
131.97049300927478        502.6828918393183        480.05773165598214       464.66598142269777       464.0063131255212        463.9794904869523        463.9799326401343
133.25406861287337        505.07161430977453       482.3361192874854        466.6144643401082        465.9353302377995        465.90789624522006       465.90833993267023
134.53764421647193        508.1551360626694        485.2972391067228        469.16426409572847       468.4233483776741        468.3939082911907        468.3943772731312
135.8212198200705         511.2386578155643        488.2583589259603        471.7140638513488        470.9113665175487        470.87992033716137       470.8804146135922
137.1047954236691         514.3221795684592        491.21947874519776       474.26386360696904       473.39938465742324       473.36593238313196       473.3664519540532
138.38837102726768        517.4057013213541        494.1805985644352        476.8136633625893        475.8874027972978        475.8519444291026        475.8524892945142
139.67194663086627        519.6213534355263        496.3097166550291        478.64975936357627       477.67485085988994       477.63787013624557       477.63843397112055
140.95552223446487        521.8370055496987        498.4388347456229        480.48585536456324       479.4622989224822        479.42379584338846       479.4243786477268
142.23909783806346        524.0526576638711        500.56795283621676       482.3219513655502        481.2497469850744        481.2097215505314        481.21032332433316
143.52267344166205        526.2683097780434        502.6970709268106        484.1580473665372        483.0371950476666        482.99564725767436       482.9962680009395
144.80624904526064        528.216054948806         504.57303259766223       485.78145168291405       484.6074979670015        484.56424322719903       484.5648837099859
146.08982464885923        530.1638001195685        506.44899426851384       487.404855999291         486.17780088633634       486.1328391967237        486.1334994190323
147.37340025245783        532.1115452903309        508.3249559393655        489.0282603156679        487.74810380567124       487.70143516624836       487.70211512807873
148.65697585605642        534.0592904610935        510.2009176102171        490.6516646320448        489.31840672500607       489.270031135773         489.27073083712514
149.940551459655          535.697011050484         511.77887391305387       492.01873071875406       490.63830188164684       490.58840465024923       490.5891236772119
151.2241270632536         537.3347316398745        513.3568302158907        493.3857968054632        491.9581970382876        491.9067781647255        491.9075165172986
152.5077026668522         538.972452229265         514.9347865187274        494.75286289217246       493.2780921949283        493.22515167920176       493.22590935738526
153.79127827045082        540.6101728186554        516.5127428215642        496.11992897888166       494.5979873515691        494.54352519367797       494.544302197472
155.0748538740494         542.1382946259547        517.9863981367486        497.4024982851338        495.8294177396498        495.7734558709781        495.7742548490054
156.358429477648          543.666416433254         519.4600534519329        498.685067591386         497.06084812773054       497.00338654827823       497.00420750053877
157.6420050812466         545.1945382405534        520.9337087671173        499.96763689763816       498.29227851581123       498.2333172255784        498.2341601520722
158.9255806848452         546.7226600478526        522.4073640823017        501.25020620389034       499.52370890389193       499.4632479028785        499.4641128036056
160.20915628844375        548.2251023169135        523.858066608968         502.51962157331525       500.73367305908727       500.6715151793531        500.6724034642811
161.49273189204234        549.7275445859743        525.3087691356343        503.78903694274015       501.9436372142826        501.8797824558277        501.8806941249566
162.77630749564094        551.2299868550351        526.7594716623005        505.05845231216506       503.15360136947794       503.08804973230235       503.08898478563214
164.0598830992395         552.7324291240959        528.2101741889668        506.32786768158996       504.3635655246733        504.29631700877695       504.29727544630765
165.34345870283812        554.1797935851039        529.6096032014123        507.5613681971281        505.5278926508445        505.458396899107         505.45938118206584
166.6270343064367         555.6271580461117        531.0090322138576        508.79486871266624       506.69221977701574       506.6204767894371        506.62148691782403
167.9106099100353         557.0745225071196        532.4084612263031        510.0283692282044        507.856546903187         507.78255667976714       507.7835926535822
169.1941855136339         558.5218869681275        533.8078902387485        511.2618697437425        509.0208740293582        508.9446365700972        508.9456983893404
170.47776111723252        559.9888407615317        535.228325775764         512.5217937690677        510.1985650848418        510.1193688393547        510.12045812254877
171.76133672083108        561.4557945549358        536.6487613127794        513.7817177943928        511.3762561403254        511.29410110861227       511.2952178557571
173.04491232442965        562.9227483483398        538.0691968497947        515.0416418197178        512.553947195809         512.4688333778697        512.4699775889654
174.32848792802824        564.389702141744         539.4896323868102        516.3015658450429        513.7316382512926        513.6435656471273        513.6447373221738
175.61206353162683        565.8558425391727        540.9095224325899        517.5649135451058        514.9084256583419        514.8170458882878        514.8182519971247
176.8956391352254         567.3219829366016        542.3294124783698        518.8282612451687        516.0852130653914        515.9905261294482        515.9917666720755
178.179214738824          568.7881233340304        543.7493025241497        520.0916089452318        517.2620004724407        517.1640063706086        517.1652813470264
179.46279034242258        570.2542637314591        545.1691925699295        521.3549566452947        518.4387878794901        518.3374866117691        518.3387960219773
180.74636594602117        571.7800479898458        546.6473294081769        522.6725445482842        519.6627767602702        519.557980229694         519.5593154755853
182.0299415496198         573.3058322482326        548.1254662464244        523.9901324512739        520.8867656410503        520.7784738476189        520.7798349291934
183.3135171532184         574.8316165066194        549.6036030846717        525.3077203542634        522.1107545218304        521.9989674655437        522.0003543828016
184.597092756817          576.3574007650061        551.0817399229192        526.6253082572531        523.3347434026105        523.2194610834687        523.2208738364096
185.88066836041563        577.8632912550215        552.5412137192528        527.9299082580062        524.5413877789885        524.4222443052911        524.4236881545227
187.1642439640142         579.369181745037         554.0006875155864        529.2345082587592        525.7480321553664        525.6250275271135        525.6265024726358
188.44781956761275        580.8750722350526        555.46016131192          530.5391082595123        526.9546765317444        526.8278107489359        526.8293167907489
189.73139517121135        582.380962725068         556.9196351082536        531.8437082602654        528.1613209081224        528.0305939707583        528.032131108862
191.01497077480994        583.7394558018775        558.2366295535592        533.0245222293539        529.2491449929834        529.1138052990495        529.1153720823135
192.29854637840853        585.0979488786869        559.5536239988649        534.2053361984424        530.3369690778443        530.1970166273406        530.1986130557648
193.58212198200715        586.4564419554963        560.8706184441705        535.3861501675309        531.4247931627051        531.2802279556319        531.2818540292162
194.86569758560574        587.8149350323058        562.1876128894761        536.5669641366194        532.512617247566         532.3634392839231        532.3650950026677
196.14927318920434        589.0136951361294        563.3504321563017        537.6120749014282        533.4715548881976        533.3180046464199        533.3196900716603
197.43284879280293        590.212455239953         564.5132514231273        538.657185666237         534.4304925288293        534.2725700089169        534.2742851406529
198.71642439640152        591.4112153437766        565.6760706899529        539.7022964310457        535.3894301694609        535.2271353714139        535.2288802096455
200.0000000000001         592.6099754476002        566.8388899567785        540.7474071958545        536.3483678100924        536.1817007339107        536.1834752786381
201.28357560359868        593.7677774045164        567.9623958943323        541.7619454186313        537.2738288684991        537.1010129339148        537.1028298646235
202.5671512071973         594.9255793614327        569.0859018318862        542.776483641408         538.1992899269059        538.020325133919         538.0221844506088
203.85072681079586        596.083381318349         570.2094077694401        543.7910218641848        539.1247509853126        538.9396373339232        538.9415390365942
205.13430241439445        597.2411832752653        571.3329137069938        544.8055600869616        540.0502120437193        539.8589495339273        539.8608936225796
206.41787801799305        598.2625716746078        572.3242922115023        545.7027514108404        540.8665473732743        540.6682650892595        540.6702360611011
207.70145362159164        599.2839600739503        573.3156707160108        546.5999427347192        541.6828827028294        541.4775806445919        541.4795784996227
208.98502922519026        600.305348473293         574.3070492205194        547.4971340585979        542.4992180323845        542.2868961999241        542.2889209381443
210.26860482878888        601.3267368726355        575.2984277250279        548.3943253824767        543.3155533619396        543.0962117552564        543.0982633766658
211.55218043238747        602.4017316894942        576.3421649988064        549.3418756322021        544.1755186422236        543.9459478796377        543.9480701608717
212.83575603598604        603.4767265063531        577.3859022725851        550.2894258819276        545.0354839225075        544.795684004019         544.7978769450774
214.1193316395846         604.5517213232118        578.4296395463637        551.236976131653         545.8954492027915        545.6454201284002        545.6476837292832
215.4029072431832         605.6267161400706        579.4733768201423        552.1845263813784        546.7554144830755        546.4951562527816        546.4974905134891
216.68648284678176        606.6180088188469        580.4362219114983        553.0615041156873        547.5485875029356        547.276348027348         547.2787504431788
217.97005845038038        607.609301497623         581.3990670028542        553.9384818499962        548.3417605227958        548.0575398019146        548.0600103728684
219.25363405397897        608.6005941763992        582.3619120942101        554.8154595843049        549.134933542656         548.838731576481         548.8412703025582
220.53720965757753        609.5918868551755        583.324757185566         555.6924373186138        549.9281065625161        549.6199233510474        549.6225302322479
221.82078526117613        610.5328553556831        584.2387584087778        556.5249936025297        550.6802247060907        550.3616228082391        550.3642924869891