% Model:              Cav_Hex_Unif_flux_v5.1.1 - Lin. Distn.mph
% Version:            COMSOL 5.5.0.359
% Date:               Nov 25 2021, 14:20
% Dimension:          1
% Nodes:              469
% Expressions:        6
% Description:        Line graph
% x                       Height                   Height                   Height                   Height                   Height                   Height
0                         1275.9936383086701       1097.2520296894468       1080.262020616529        1079.3380681688104       1079.2987020238193       1079.2994888614796
0.8547008547008556        1278.5003336958273       1097.5446663427767       1080.3566200450102       1079.4236396814526       1079.3838896850157       1079.3846840358794
1.709401709401711         1281.0070290829842       1097.8373029961065       1080.4512194734914       1079.5092111940949       1079.4690773462119       1079.4698792102795
2.5641025641025665        1283.5137244701411       1098.1299396494364       1080.5458189019726       1079.594782706737        1079.5542650074083       1079.5550743846793
3.418803418803422         1288.5560342721876       1100.0393877811807       1082.0755304335364       1081.1086619019684       1081.067471262336        1081.0682935916047
4.273504273504278         1293.598344074234        1101.9488359129248       1083.6052419651          1082.6225410971997       1082.5806775172637       1082.58151279853
5.128205128205133         1298.6406538762806       1103.858284044669        1085.134953496664        1084.136420292431        1084.0938837721915       1084.0947320054554
5.982905982905989         1304.3188376278013       1106.5866053326406       1087.3623387405075       1086.3440847986922       1086.300710161656        1086.3015743818794
6.837606837606845         1309.9970213793217       1109.314926620612        1089.5897239843512       1088.551749304953        1088.5075365511207       1088.5084167583034
7.692307692307701         1315.6752051308424       1112.0432479085832       1091.8171092281948       1090.7594138112142       1090.7143629405853       1090.7152591347274
8.547008547008557         1321.4238757966034       1115.2516681219508       1094.422333079811        1093.342012895915        1093.2960006148876       1093.2969150100896
9.401709401709413         1327.1725464623642       1118.4600883353185       1097.0275569314276       1095.924611980616        1095.8776382891897       1095.8785708854518
10.256410256410268        1332.921217128125        1121.668508548686        1099.632780783044        1098.5072110653168       1098.4592759634918       1098.460226760814
11.111111111111125        1337.340705141244        1125.1840048797537       1102.2841251968487       1101.1305642642176       1101.0814399382432       1101.0824127855478
11.965811965811982        1341.7601931543627       1128.6995012108212       1104.9354696106532       1103.7539174631183       1103.7036039129946       1103.7045988102818
12.820512820512837        1346.1796811674815       1132.2149975418886       1107.586814024458        1106.377270662019        1106.325767887746        1106.3267848350156
13.675213675213692        1349.35246178117         1135.637435145751        1109.9561783878487       1108.715714069937        1108.6628977366902       1108.6639386964691
14.529914529914548        1352.525242394858        1139.0598727496133       1112.3255427512395       1111.0541574778547       1111.0000275856344       1111.0010925579227
15.384615384615401        1355.6980230085462       1142.4823103534757       1114.6949071146303       1113.3926008857725       1113.3371574345786       1113.3382464193762
16.239316239316256        1358.0764019895335       1145.8020157583194       1116.8210850023863       1115.4859350116853       1115.4290968127707       1115.4302110543968
17.09401709401711         1360.4547809705202       1149.1217211631633       1118.9472628901422       1117.579269137598        1117.5210361909628       1117.5221756894173
17.948717948717967        1362.8331599515072       1152.441426568007        1121.0734407778982       1119.6726032635106       1119.612975569155        1119.6141403244378
18.803418803418825        1364.3166369650023       1155.648234829778        1122.9135363130986       1121.4776094801698       1121.4164927560819       1121.4176841946983
19.65811965811968         1365.8001139784972       1158.8550430915486       1124.7536318482987       1123.282615696829        1123.2200099430086       1123.2212280649585
20.51282051282054         1367.2835909919922       1162.0618513533195       1126.593727383499        1125.0876219134882       1125.0235271299355       1125.024771935219
21.367521367521395        1366.972224867736        1165.0356354702062       1127.6597896324645       1126.1129399783524       1126.0471203528666       1126.0483952395489
22.222222222222246        1366.6608587434796       1168.0094195870931       1128.7258518814297       1127.1382580432164       1127.0707135757975       1127.072018543879
23.0769230769231          1366.3494926192232       1170.9832037039798       1129.7919141303948       1128.1635761080806       1128.0943067987284       1128.095641848209
23.93162393162396         1365.43263912857         1173.9019286020923       1130.5113212898937       1128.8397498209392       1128.7686530542744       1128.7700195860957
24.786324786324816        1364.5157856379165       1176.8206535002048       1131.2307284493922       1129.5159235337978       1129.4429993098204       1129.4443973239822
25.641025641025678        1363.5989321472632       1179.7393783983173       1131.950135608891        1130.1920972466564       1130.1173455653663       1130.118775061869
26.495726495726533        1362.2391093747033       1182.6438652471047       1132.3645799627973       1130.561096232655        1130.4844249770954       1130.4858871913295
27.350427350427385        1360.879286602143        1185.548352095892        1132.7790243167033       1130.9300952186534       1130.8515043888242       1130.8529993207903
28.205128205128236        1359.519463829583        1188.4528389446791       1133.1934686706093       1131.2990942046517       1131.218583800553        1131.220111450251
29.05982905982909         1357.709797979091        1191.4147565322448       1133.2546399364237       1131.3119055530015       1131.2293525441644       1131.230914552084
29.914529914529943        1355.900132128599        1194.3766741198103       1133.3158112022381       1131.3247169013512       1131.240121287776        1131.241717653917
30.7692307692308          1354.0904662781068       1197.3385917073758       1133.3769824680526       1131.3375282497009       1131.2508900313874       1131.25252075575
31.623931623931657        1351.4516853458451       1200.6075258992287       1132.6637754545825       1130.569912101046        1130.480973731093        1130.4826420005095
32.47863247863251         1348.8129044135833       1203.8764600910818       1131.9505684411122       1129.8022959523908       1129.7110574307985       1129.7127632452687
33.33333333333337         1346.1741234813217       1207.1453942829346       1131.2373614276419       1129.0346798037358       1128.941141130504        1128.942884490028
34.18803418803423         1343.2361243460864       1210.7097578713604       1130.2580467831576       1127.9980913929826       1127.9021312386576       1127.9039135920038
35.04273504273508         1340.2981252108507       1214.274121459786        1129.2787321386731       1126.9615029822291       1126.8631213468109       1126.8649426939794
35.89743589743594         1337.3601260756152       1217.8384850482119       1128.299417494189        1125.9249145714757       1125.8241114549642       1125.8259717959552
36.7521367521368          1334.2218054233701       1221.6739029186754       1127.0925831554575       1124.6580070172415       1124.5546660216128       1124.556566728858
37.60683760683765         1331.0834847711246       1225.5093207891389       1125.885748816726        1123.391099463007        1123.2852205882612       1123.2871616617606
38.4615384615385          1327.9451641188793       1229.3447386596024       1124.6789144779943       1122.124191908773        1122.0157751549095       1122.0177565946633
39.31623931623936         1324.6748255794078       1233.3577221187586       1123.2313959881103       1120.6125922578783       1120.501482719625        1120.5035063559385
40.17094017094022         1321.4044870399357       1237.3707055779146       1121.783877498226        1119.1009926069835       1118.9871902843408       1118.9892561172135
41.02564102564108         1318.1341485004639       1241.3836890370708       1120.336359008342        1117.589392956089        1117.4728978490564       1117.4750058784887
41.88034188034194         1314.59365847351         1243.002058828602        1118.4043646220514       1115.584628299679        1115.4651163985404       1115.467270207623
42.73504273504279         1311.053168446556        1244.620428620133        1116.4723702357608       1113.5798636432692       1113.4573349480243       1113.4595345367572
43.58974358974364         1307.512678419602        1246.2387984116642       1114.5403758494701       1111.5750989868593       1111.449553497508        1111.4517988658915
44.4444444444445          1303.7858942152052       1246.009658597379        1112.4060726043983       1109.3637449740143       1109.235010594637        1109.237303549019
45.29914529914535         1300.0591100108081       1245.7805187830936       1110.2717693593263       1107.1523909611692       1107.0204676917658       1107.0228082321464
46.1538461538462          1296.3323258064113       1245.5513789688082       1108.1374661142545       1104.9410369483242       1104.8059247888946       1104.808312915274
47.00854700854706         1292.4730807730068       1244.1540307444413       1105.8398014130562       1102.562365912065        1102.4239111071875       1102.4263483915072
47.86324786324791         1288.613835739602        1242.7566825200745       1103.5421367118577       1100.1836948758057       1100.0418974254803       1100.0443838677402
48.71794871794877         1284.7545907061976       1241.3593342957076       1101.2444720106591       1097.8050238395465       1097.6598837437732       1097.6624193439734
49.57264957264963         1280.8448555587656       1239.049886779524        1098.79503950211         1095.2696853743814       1095.1210172614185       1095.1236039002056
50.42735042735048         1276.9351204113334       1236.7404392633405       1096.3456069935608       1092.7343469092164       1092.5821507790638       1092.5847884564375
51.28205128205134         1273.0253852639012       1234.430991747157        1093.8961744850114       1090.1990084440513       1090.043284296709        1090.0459730126695
52.1367521367522          1269.0738911267467       1231.2068512931335       1091.1899429872142       1087.397618401806        1087.2380298978999       1087.2407728402688
52.991452991453045        1265.122396989592        1227.9827108391103       1088.4837114894167       1084.5962283595609       1084.4327754990907       1084.435572667868
53.846153846153896        1261.1709028524376       1224.7585703850868       1085.7774799916194       1081.7948383173157       1081.6275211002815       1081.6303724954673
54.700854700854755        1257.152915393546        1221.09370760971         1082.9017074908202       1078.8150854471298       1078.6436078999063       1078.646516170471
55.55555555555561         1253.1349279346541       1217.428844834333        1080.0259349900207       1075.835332576944        1075.659694699531        1075.6626598454743
56.410256410256466        1249.1169404757625       1213.763982058956        1077.1501624892214       1072.8555797067581       1072.6757814991558       1072.678803520478
57.264957264957324        1245.0714482333494       1209.956137804433        1074.1980859657401       1069.7931732223453       1069.609003882086        1069.61208462364
58.119658119658176        1241.0259559909362       1206.1482935499098       1071.2460094422586       1066.7307667379325       1066.5422262650159       1066.5453657268017
58.97435897435903         1236.980463748523        1202.3404492953869       1068.2939329187773       1063.6683602535197       1063.475448647946        1063.4786468299635
59.82905982905989         1232.963166247622        1198.486631184671        1065.2878553448936       1060.5447707945093       1060.3472623857383       1060.3505212464402
60.68376068376074         1228.9458687467209       1194.632813073955        1062.2817777710102       1057.4211813354987       1057.2190761235304       1057.2223956629166
61.5384615384616          1224.9285712458197       1190.778994963239        1059.2757001971265       1054.2975918764882       1054.0908898613225       1054.0942700793933
62.393162393162456        1220.936675227948        1186.8902322114725       1056.2087760721627       1051.1028850043854       1050.8912872169915       1050.8947306574541
63.247863247863314        1216.944779210076        1183.0014694597057       1053.1418519471986       1047.9081781322827       1047.6916845726603       1047.6951912355148
64.10256410256417         1212.952883192204        1179.112706707939        1050.0749278222347       1044.7134712601799       1044.492081928329        1044.4956518135755
64.95726495726502         1209.020747654073        1175.2366752491941       1046.9583541233385       1041.4520550041102       1041.2252450621324       1041.2288822953321
65.81196581196588         1205.0886121159417       1171.360643790449        1043.841780424442        1038.1906387480406       1037.9584081959358       1037.9621127770888
66.66666666666673         1201.1564765778107       1167.4846123317043       1040.7252067255458       1034.929222491971        1034.6915713297392       1034.6953432588455
67.52136752136758         1197.2056568768276       1163.5622990822676       1037.595919954551        1031.6457400820377       1031.402367630408        1031.4062091148683
68.37606837606843         1193.2548371758442       1159.6399858328307       1034.4666331835558       1028.3622576721043       1028.113163931077        1028.117074970891
69.2307692307693          1189.3040174748608       1155.717672583394        1031.337346412561        1025.078775262171        1024.8239602317458       1024.8279408269138
70.08547008547016         1185.345462407847        1151.7598970606614       1028.2060391403904       1021.7841233987773       1021.5233134919439       1021.527365599919
70.94017094017101         1181.3869073408332       1147.8021215379288       1025.07473186822         1018.4894715353836       1018.2226667521418       1018.2267903729239
71.79487179487188         1177.4283522738194       1143.8443460151962       1021.9434245960493       1015.1948196719899       1014.9220200123398       1014.926215145929
72.64957264957273         1173.4776302926584       1139.8791894344588       1018.8263609536822       1011.9031043317884       1011.6239931707798       1011.6282620734688
73.50427350427357         1169.5269083114974       1135.9140328537212       1015.7092973113149       1008.6113889915868       1008.3259663292197       1008.3303090010086
74.35897435897442         1165.5761863303364       1131.9488762729839       1012.5922336689476       1005.3196736513852       1005.0279394876596       1005.0323559285483
75.21367521367529         1161.6212290020894       1127.9816419191773       1009.464441521242        1001.9933671249723       1001.6946872544149       1001.6991815745881
76.06837606837614         1157.6662716738422       1124.014407565371        1006.336649373536        998.6670605985593        998.36143502117          998.3660072206277
76.92307692307699         1153.7113143455952       1120.0471732115643       1003.2088572258302       995.3407540721463        995.0281827879252        995.0328328666673
77.77777777777786         1149.7936149015038       1116.1153447168851       1000.0819202938429       991.9965281200847        991.6765234211076        991.6812542450864
78.63247863247871         1145.8759154574125       1112.1835162222058       996.9549833618554        988.6523021680229        988.32486405429          988.3296756235053
79.48717948717956         1141.9582160133211       1108.2516877275264       993.8280464298679        985.3080762159611        984.9732046874723        984.9780970019243
80.34188034188041         1138.0555184792954       1104.3407062540387       990.7038059621652        981.9534284018091        981.6107967171672        981.6157715887699
81.19658119658126         1134.1528209452695       1100.429724780551        987.5795654944625        978.5987805876568        978.248388746862         978.2534461756154
82.0512820512821          1130.2501234112437       1096.5187433070632       984.4553250267599        975.2441327735047        974.885980776557         974.891120762461
82.90598290598297         1126.3615723740452       1092.6222820018538       981.3528983320921        971.8963993954828        971.5301193072595        971.5353438467325
83.76068376068382         1122.4730213368464       1088.7258206966442       978.2504716374243        968.5486660174607        968.1742578379618        968.179566931004
84.61538461538467         1118.5844702996478       1084.8293593914345       975.1480449427565        965.2009326394387        964.8183963686641        964.8237900152756
85.47008547008552         1114.7301558600948       1080.9610325457563       972.1024668297052        961.8779847038953        961.4865849114861        961.49206680102
86.32478632478637         1110.8758414205415       1077.0927057000779       969.0568887166538        958.5550367683518        958.1547734543079        958.1603435867643
87.17948717948723         1107.0215269809885       1073.2243788543997       966.0113106036024        955.2320888328082        954.8229619971298        954.8286203725087
88.0341880341881          1103.2522554906093       1069.445197676943        963.0825661799794        951.9908585351925        951.5721480612237        951.5778980976936
88.88888888888897         1099.48298400023         1065.6660164994862       960.1538217563563        948.7496282375768        948.3213341253175        948.3271758228783
89.74358974358984         1095.713712509851        1061.8868353220296       957.2250773327331        945.508397939961         945.0705201894115        945.0764535480631
90.59829059829069         1091.988644157612        1058.1501911333805       954.3607164107274        942.3102328318267        941.8623423017829        941.8683692051889
91.45299145299153         1088.263575805373        1054.4135469447313       951.4963554887214        939.1120677236923        938.6541644141541        938.6602848623144
92.30769230769238         1084.538507453134        1050.6769027560822       948.6319945667155        935.913902615558         935.4459865265254        935.45220051944
93.16239316239324         1080.8598247717582       1046.988145714049        945.8359549663942        932.759521744337         932.2811263946785        932.2874358873436
94.0170940170941          1077.1811420903823       1043.2993886720158       943.0399153660726        929.6051408731158        929.1162662628313        929.1226712552469
94.87179487179495         1073.5024594090066       1039.6106316299827       940.243875765751         926.4507600018948        925.9514061309843        925.9579066231504
95.72649572649583         1069.877847062417        1035.9769050960815       937.5746465120858        923.363381663689         922.8525735872413        922.8591730321818
96.58119658119668         1066.2532347158274       1032.3431785621801       934.9054172584204        920.2760033254831        919.753741043498         919.7604394412131
97.43589743589753         1062.6286223692377       1028.7094520282787       932.236188004755         917.1886249872772        916.6549084997549        916.6617058502444
98.29059829059838         1059.0798816438523       1025.1505311006135       929.6958380883569        914.1724664030656        913.6264069832848        913.6333060786292
99.14529914529923         1055.531140918467        1021.5916101729484       927.1554881719587        911.1563078188539        910.5979054668146        910.6049063070137
100.00000000000009        1051.9824001930815       1018.0326892452832       924.6151382555606        908.1401492346421        907.5694039503445        907.5765065353983
100.85470085470094        1048.4856395504682       1014.5254968398199       922.1493159403752        905.1633749087773        904.5797574674641        904.586963351218
101.70940170940179        1044.9888789078548       1011.0183044343564       919.6834936251898        902.1866005829123        901.5901109845837        901.5974201670374
102.56410256410264        1041.4921182652413       1007.5111120288931       917.2176713100044        899.2098262570474        898.6004645017033        898.607876982857
103.41880341880349        1038.0563346931365       1004.0659547718698       914.8357822431759        896.277903052533         895.6550919738738        895.6626094303222
104.27350427350433        1034.6205511210314       1000.6207975148463       912.4538931763474        893.3459798480185        892.7097194460443        892.7173418777872
105.12820512820518        1031.1847675489264       997.175640257823         910.0720041095188        890.414056643504         889.7643469182149        889.7720743252523
105.98290598290605        1027.8481843145867       993.8409276682717        907.8943379091552        887.5721691081044        886.9074677309538        886.915303700979
106.8376068376069         1024.5116010802467       990.5062150787201        905.7166717087915        884.7302815727046        884.0505885436927        884.0585330767055
107.69230769230775        1021.175017845907        987.1715024891685        903.5390055084279        881.8883940373048        881.1937093564317        881.201762452432
108.5470085470086         1017.9077934349021       983.9010383054351        901.4985371838111        879.1062772978235        878.3956902159389        878.4038536800249
109.40170940170945        1014.6405690238972       980.6305741217016        899.4580688591942        876.3241605583419        875.597671075446         875.6059449076176
110.2564102564103         1011.3733446128924       977.3601099379681        897.4176005345773        873.5420438188604        872.7996519349531        872.8080361352104
111.11111111111119        1008.1453279236719       974.1295354966009        895.4773390551779        870.801007443075         870.0420265336104        870.0505223079494
111.96581196581204        1004.9173112344513       970.8989610552335        893.5370775757783        868.0599710672896        867.2844011322676        867.2930084806883
112.8205128205129         1001.6892945452307       967.6683866138662        891.5968160963788        865.3189346915041        864.5267757309249        864.5354946534272
113.67521367521377        998.5139720583652        964.4924381896318        889.7746913685243        862.6244265732619        861.8148661089708        861.8236979799548
114.5299145299146         995.3386495714996        961.3164897653973        887.9525666406696        859.9299184550194        859.1029564870166        859.1119013064822
115.38461538461546        992.1633270846339        958.1405413411627        886.130441912815         857.235410336777         856.3910468650624        856.4001046330096
116.23931623931632        989.0702084780976        955.0535072698453        884.5567902892988        854.6443824720005        853.7804714250052        853.7896444767734
117.09401709401718        985.977089871561         951.9664731985278        882.9831386657825        852.0533546072239        851.1698959849479        851.1791843205372
117.94871794871804        982.8839712650246        948.8794391272103        881.4094870422662        849.4623267424474        848.5593205448905        848.568724164301
118.8034188034189         979.854223723048         945.8588854861031        879.8887242705322        846.9272751837283        846.0036785289429        846.0131983849241
119.65811965811973        976.8244761810712        942.8383318449958        878.3679614987982        844.392223625009         843.4480365129953        843.4576726055469
120.51282051282058        973.7947286390945        939.8177782038885        876.8471987270642        841.8571720662898        840.8923944970476        840.9021468261698
121.36752136752145        970.8300695189937        936.865937113637         875.2659549390628        839.3718101051539        838.3854749799663        838.3953442555505
122.22222222222229        967.8654103988927        933.9140960233852        873.6847111510613        836.886448144018         835.8785554628847        835.888541684931
123.07692307692315        964.9007512787917        930.9622549331335        872.1034673630598        834.4010861828822        833.3716359458033        833.3817391143117
123.93162393162402        962.0142392576882        928.0947550847667        870.3487267725071        831.9804587237759        830.9281834185739        830.9384044191372
124.78632478632487        959.1277272365846        925.2272552363997        868.5939861819543        829.5598312646695        828.4847308913443        828.4950697239626
125.64102564102572        956.241215215481         922.3597553880328        866.8392455914014        827.1392038055632        826.0412783641146        826.051735028788
126.49572649572657        953.5024477500139        919.6452740884148        864.8164006625271        824.8385572401244        823.7149188504524        823.7254935218764
127.35042735042742        950.7636802845466        916.9307927887966        862.7935557336527        822.5379106746855        821.38855933679          821.3992520149645
128.2051282051283         948.0249128190793        914.2163114891783        860.7707108047784        820.2372641092466        819.0621998231277        819.0730105080528
129.05982905982913        945.3522104412739        911.568603647008         858.6736758447331        817.9943014604185        816.792091907165         816.8030203738085
129.91452991453           942.6795080634685        908.9208958048375        856.5766408846877        815.7513388115904        814.5219839912022        814.533030239564
130.76923076923083        940.006805685663         906.2731879626672        854.4796059246422        813.5083761627623        812.2518760752395        812.2630401053196
131.62393162393172        937.3832928570813        903.6755494293423        852.3407872379851        811.3176062154713        810.0326299395144        810.0439112687011
132.47863247863256        934.7597800284994        901.0779108960172        850.2019685513279        809.1268362681802        807.8133838037893        807.8247824320823
133.33333333333346        932.1362671999177        898.4802723626922        848.0631498646708        806.9360663208893        805.5941376680643        805.6056535954635
134.1880341880343         929.5553324546186        895.9261897205672        845.8661832094242        804.8064147757224        803.4343300845695        803.4459625301482
135.04273504273513        926.9743977093193        893.3721070784421        843.6692165541775        802.6767632305554        801.2745225010747        801.2862714648328
135.89743589743597        924.39346296402          890.818024436317         841.472249898931         800.5471116853884        799.1147149175798        799.1265803995174
136.75213675213686        921.9143039853058        888.3666934797122        839.2508931129801        798.5248566971294        797.0585811504864        797.0705588880612
137.6068376068377         919.4351450065914        885.9153625231072        837.0295363270291        796.5026017088703        795.0024473833929        795.0145373766048
138.46153846153857        916.955986027877         883.4640315665023        834.8081795410781        794.4803467206114        792.9463136162994        792.9585158651486
139.31623931623943        914.5396935813731        881.0772841466663        832.630104317214         792.5133935045598        790.9434644869475        790.9557760352678
140.17094017094027        912.123401134869         878.6905367268303        830.4520290933498        790.5464402885079        788.9406153575954        788.9530362053869
141.0256410256411         909.7071086883651        876.3037893069942        828.2739538694857        788.5794870724561        786.9377662282434        786.950296375506
141.88034188034197        907.343208392637         873.9698794578072        826.1317160257001        786.6574567260385        784.9780458522584        784.9906822747289
142.73504273504284        904.9793080969089        871.6359696086201        823.9894781819144        784.7354263796208        783.0183254762734        783.0310681739516
143.58974358974368        902.6154078011807        869.3020597594331        821.8472403381287        782.8133960332032        781.0586051002884        781.0714540731742
144.44444444444454        900.3143851757083        867.0320764997945        819.7510831541211        780.9429839611779        779.1483469181126        779.1612982880991
145.29914529914538        898.0133625502357        864.7620932401557        817.6549259701134        779.0725718891525        777.2380887359366        777.251142503024
146.15384615384625        895.7123399247631        862.492109980517         815.5587687861057        777.2021598171273        775.3278305537607        775.3409867179488
147.00854700854708        893.5101832321085        860.3238041704292        813.5398283095502        775.4183369011186        773.4995635301673        773.5128112807255
147.86324786324795        891.3080265394536        858.1554983603413        811.5208878329945        773.6345139851096        771.6712965065736        771.6846358435021