% Model:              Cav_Hex_Unif_flux_v5.1.1 - Lin. Distn.mph
% Version:            COMSOL 5.5.0.359
% Date:               Nov 25 2021, 14:19
% Dimension:          1
% Nodes:              388
% Expressions:        6
% Description:        Line graph
% x                       Height                   Height                   Height                   Height                   Height                   Height
0                         1055.1713505345017       966.2559103537175        952.8419650021739        952.7717475348761        952.7903282429133        952.7802036100608
0.1291989664082689        1054.0487479674705       965.1691883070454        951.7610354459184        951.6908611883244        951.7094324131338        951.6993128824624
0.2583979328165378        1052.926145400439        964.0824662603732        950.6801058896629        950.6099748417726        950.6285365833539        950.618422154864
0.38759689922480667       1051.8035428334078       962.995744213701         949.5991763334073        949.5290884952208        949.5476407535742        949.5375314272655
0.5167958656330756        1050.7943376595233       962.0122424246877        948.6123243324123        948.5422506769262        948.5608025870918        948.5506933119827
0.6459948320413443        1049.7851324856385       961.0287406356742        947.6254723314172        947.5554128586314        947.5739644206092        947.5638551966998
0.7751937984496132        1048.775927311754        960.0452388466609        946.6386203304222        946.5685750403366        946.5871262541266        946.577017081417
0.9043927648578822        1047.768958014994        959.1139061656312        945.6974156006795        945.6273772695772        945.6459323819241        945.6358209803691
1.0335917312661511        1046.761988718234        958.1825734846013        944.7562108709367        944.6861794988178        944.7047385097216        944.694624879321
1.16279069767442          1045.7550194214741       957.2512408035715        943.8150061411939        943.7449817280583        943.763544637519         943.753428778273
1.291989664082689         1044.7988400536535       956.3862605417337        942.9325188214433        942.8623952782904        942.8809642348966        942.8708435443356
1.4211886304909576        1043.842660685833        955.5212802798958        942.0500315016926        941.9798088285223        941.9983838322742        941.988258310398
1.5503875968992265        1042.8864813180123       954.656300018058         941.1675441819419        941.0972223787543        941.1158034296518        941.1056730764604
1.6795865633074953        1041.9464000654405       953.8406099529919        940.3246982440376        940.2540947981938        940.2726843173514        940.2625470659623
1.8087855297157642        1041.0063188128686       953.0249198879256        939.481852306133         939.4109672176332        939.4295652050508        939.4194210554639
1.937984496124033         1040.0662375602967       952.2092298228595        938.6390063682285        938.5678396370728        938.5864460927503        938.5762950449656
2.0671834625323022        1039.0943384357913       951.4164578142559        937.8106294273987        937.7391346262239        937.757752617043         937.7475930845194
2.1963824289405713        1038.1224393112857       950.6236858056521        936.9822524865687        936.9104296153747        936.9290591413356        936.9188911240731
2.32558139534884          1037.15054018678         949.8309137970484        936.1538755457386        936.0817246045257        936.1003656656284        936.0901891636267
2.4547803617571087        1036.1477963915029       949.0636435857655        935.3411510187361        935.2686494829361        935.2873045835264        935.2771181145761
2.583979328165377         1035.1450525962255       948.2963733744824        934.5284264917335        934.4555743613464        934.4742435014242        934.4640470655253
2.7131782945736456        1034.142308800948        947.5291031631994        933.715701964731         933.6424992397567        933.661182419322         933.6509760164745
2.842377260981915         1033.098325009593        946.7790401924734        932.9074565032261        932.8338408339515        932.852537025631         932.8423194600249
2.9715762273901842        1032.0543412182378       946.0289772217474        932.099211041721         932.0251824281463        932.0438916319399        932.0336629035752
3.1007751937984533        1031.0103574268828       945.2789142510214        931.290965580216         931.2165240223411        931.2352462382489        931.2250063471256
3.229974160206722         1029.9242206485071       944.5466197259047        930.4894673165018        930.4144818577096        930.4332177001486        930.4229654682473
3.3591731266149902        1028.8380838701314       943.814325200788         929.6879690527874        929.6124396930779        929.6311891620481        929.6209245893689
3.488372093023259         1027.7519470917557       943.0820306756713        928.886470789073         928.8103975284464        928.8291606239477        928.8188837104906
3.617571059431528         1026.6463589999212       942.3661307200443        928.0861484260947        928.0094464991981        928.0282239513016        928.017933702178
3.7467700258397962        1025.5407709080864       941.6502307644173        927.2858260631164        927.2084954699498        927.2272872786554        927.2169836938651
3.8759689922480653        1024.4351828162517       940.9343308087903        926.485503700138         926.4075444407014        926.4263506060092        926.4160336855523
4.005167958656335         1023.3363627414974       940.2390138060593        925.6888919229239        925.6101805779978        925.6290012167436        925.6186699469163
4.1343669250646045        1022.237542666743        939.5436968033284        924.8922801457096        924.8128167152942        924.8316518274779        924.82130620828
4.263565891472873         1021.1387225919887       938.8483798005975        924.0956683684954        924.0154528525906        924.0343024382123        924.0239424696439
4.392764857881143         1020.0422624900597       938.17140068587          923.3028535463261        923.2217736518787        923.2406372175753        923.2302619907247
4.521963824289411         1018.9458023881305       937.4944215711425        922.5100387241566        922.4280944511668        922.4469719969381        922.4365815118052
4.651162790697679         1017.8493422862014       936.817442456415         921.7172239019873        921.6344152504548        921.6533067763011        921.6429010328859
4.780361757105949         1016.7646240446174       936.1617579090697        920.9314021564192        920.847596343579         920.866500132118         920.8560781908799
4.9095607235142165        1015.6799058030333       935.5060733617242        920.1455804108508        920.0607774367029        920.0796934879346        920.0692553488738
5.038759689922486         1014.5951875614493       934.8503888143789        919.3597586652825        919.2739585298269        919.2928868437514        919.2824325068677
5.167958656330756         1013.5074553364442       934.201852350775         918.5771672562225        918.4902715679578        918.509209739682         918.4987383889458
5.297157622739023         1012.419723111439        933.5533158871708        917.7945758471624        917.7065846060885        917.7255326356124        917.7150442710238
5.426356589147293         1011.3319908864338       932.9047794235667        917.0119844381023        916.9228976442193        916.9418555315428        916.9313501531018
5.555555555555562         1010.2015735036313       932.1939814486432        916.2307951457516        916.1405338678231        916.1594988947551        916.1489757074028
5.68475452196383          1009.0711561208285       931.4831834737196        915.4496058534007        915.3581700914268        915.3771422579671        915.3666012617037
5.813953488372099         1007.9407387380257       930.7723854987961        914.6684165610499        914.5758063150305        914.5947856211792        914.5842268160047
5.9431524547803685        1006.8022267242122       930.0069545956841        913.8934092647916        913.7992776519111        913.8182606168632        913.8076832258582
6.072351421188636         1005.6637147103986       929.241523692572         913.1184019685331        913.0227489887916        913.041735612547         913.0311396357116
6.201550387596906         1004.525202696585        928.4760927894598        912.3433946722747        912.2462203256721        912.2652106082307        912.2545960455651
6.330749354005175         1003.3929581626415       927.6613867525026        911.5724454668454        911.4735213166468        911.4925097407668        911.4818758357582
6.459948320413444         1002.2607136286979       926.8466807155453        910.8014962614159        910.7008223076215        910.7198088733026        910.709155625951
6.589147286821714         1001.1284690947543       926.031974678588         910.0305470559865        909.9281232985962        909.9471080058385        909.9364354161438
6.718346253229982         1000.0060696854385       925.1787166544071        909.2611306905086        909.1567894478159        909.1757621621557        909.1650695558678
6.84754521963825          998.8836702761225        924.3254586302262        908.4917143250306        908.3854555970353        908.4044163184728        908.3937036955917
6.976744186046519         997.7612708668065        923.4722006060452        907.7222979595525        907.6141217462548        907.6330704747901        907.6223378353158
7.105943152454788         996.6622552935946        922.61652722139          906.9637552836831        906.8536459549529        906.8725749980194        906.8618215820667
7.235142118863057         995.5632397203825        921.7608538367347        906.2052126078136        906.0931701636507        906.1120795212488        906.1013053288176
7.364341085271326         994.4642241471705        920.9051804520793        905.4466699319441        905.3326943723487        905.3515840444782        905.3407890755685
7.493540051679595         993.3978303070996        920.0632419899039        904.7003853591428        904.5842932041415        904.6031579974796        904.5923415508498
7.622739018087865         992.3314364670285        919.2213035277283        903.9541007863413        903.8358920359342        903.854731950481         903.8438940261311
7.751937984496134         991.2650426269576        918.3793650655527        903.2078162135398        903.0874908677268        903.1063059034824        903.0954465014124
7.881136950904403         990.2258854595422        917.5508973382665        902.4753793027298        902.3521213136482        902.3709055087204        902.3600239371212
8.01033591731267          989.1867282921266        916.7224296109802        901.7429423919198        901.6167517595694        901.6355051139584        901.62460137283
8.13953488372094          988.1475711247112        915.8939618836938        901.0105054811098        900.8813822054907        900.9001047191964        900.8891788085389
8.268733850129209         987.13446630186          915.0787982628899        900.2909963996569        900.1584381466282        900.1771145661118        900.1661658392576
8.397932816537477         986.1213614790088        914.2636346420859        899.5714873182039        899.4354940877656        899.454124413027         899.4431528699762
8.527131782945746         985.1082566561576        913.4484710212819        898.851978236751         898.7125500289031        898.7311342599423        898.7201399006949
8.656330749354014         984.1273147707801        912.6541047790854        898.1428095326216        897.9994885342034        898.0180143985534        898.0069962718039
8.785529715762284         983.1463728854027        911.8597385368888        897.433640828492         897.2864270395035        897.3048945371644        897.2938526429127
8.914728682170551         982.1654310000253        911.0653722946922        896.7244721243625        896.5733655448037        896.5917746757754        896.5807090140215
9.043927648578821         981.2052032087511        910.281455775388         896.0285442654856        895.8730941377235        895.8914359003575        895.8803442572258
9.17312661498709          980.2449754174768        909.4975392560837        895.3326164066085        895.172822730643         895.1910971249395        895.17997950043
9.30232558139536          979.2847476262025        908.7136227367794        894.6366885477314        894.4725513235626        894.4907583495215        894.4796147436343
9.43152454780363          978.3423689243955        907.9406287075616        893.9518125224953        893.782559370622         893.8006924841569        893.7895188545054
9.5607235142119           977.3999902225884        907.1676346783436        893.266936497259         893.0925674176814        893.1106266187923        893.0994229653764
9.689922480620167         976.4576115207813        906.3946406491257        892.5820604720229        892.4025754647408        892.4205607534277        892.4093270762476
9.819121447028435         975.5365700853746        905.6338934358216        891.9094011592837        891.7240376338306        891.7419292876091        891.7306627125907
9.948320413436702         974.6155286499678        904.8731462225173        891.2367418465443        891.0454998029202        891.0632978217903        891.0519983489338
10.07751937984497         973.694487214561         904.112399009213         890.564082533805         890.3669619720099        890.3846663559716        890.3733339852769
10.20671834625324         972.7986005431529        903.369857907328         889.9078819034767        889.704380783965         889.7219763271753        889.7106092438038
10.335917312661508        971.9027138717448        902.6273168054428        889.251681273148         889.0417995959199        889.0592862983788        889.0478845023307
10.465116279069777        971.0068272003367        901.8847757035577        888.5954806428196        888.3792184078749        888.3965962695823        888.3851597608576
10.594315245478047        970.1413265348828        901.1655958182483        887.9564135971002        887.7323716390983        887.7496335628158        887.7381619668474
10.723514211886316        969.2758258694288        900.446415932939         887.3173465513806        887.0855248703217        887.1026708560491        887.0911641728372
10.852713178294584        968.4103252039748        899.7272360476296        886.6782795056612        886.4386781015451        886.4557081492825        886.444166378827
10.981912144702854        967.5685460270048        899.0256975051785        886.0530212005224        885.804346988506         885.8212421950728        885.8096645701613
11.111111111111123        966.7267668500347        898.3241589627274        885.4277628953835        885.170015875467         885.1867762408631        885.1751627614955
11.240310077519393        965.8849876730646        897.6226204202763        884.8025045902446        884.535684762428         884.5523102866533        884.5406609528296
11.369509043927664        965.0691180124995        896.9403469726409        884.1926722315744        883.9157331577363        883.9322051356307        883.9205115676826
11.49870801033593         964.2532483519342        896.2580735250053        883.5828398729042        883.2957815530445        883.312099984608         883.3003621825355
11.6279069767442          963.4373786913688        895.5758000773699        882.973007514234         882.6758299483528        882.6919948335855        882.6802127973884
11.75710594315247         962.6408441672874        894.9072525808414        882.378687792096         882.0702518050357        882.0862492933671        882.074413616997
11.886304909560737        961.8443096432057        894.2387050843126        881.7843680699578        881.4646736617185        881.4805037531487        881.4686144366054
12.015503875969006        961.0477751191241        893.570157587784         881.1900483478197        880.8590955184014        880.8747582129303        880.8628152562138
12.144702842377276        960.2777245739239        892.9223351769559        880.6125202235625        880.2692527121675        880.2847151311358        880.2727095980135
12.273901808785542        959.5076740287236        892.2745127661276        880.0349920993051        879.6794099059334        879.6946720493414        879.6826039398131
12.403100775193812        958.7376234835233        891.6266903552993        879.4574639750477        879.0895670996994        879.104628967547         879.0924982816128
12.532299741602081        957.9840363589785        890.9910063794151        878.894416959641         878.5133577519949        878.5281779692219        878.5159875967249
12.661498708010349        957.2304492344336        890.3553224035307        878.3313699442342        877.9371484042904        877.9517269708967        877.939476911837
12.790697674418618        956.4768621098889        889.7196384276465        877.7683229288274        877.3609390565858        877.3752759725717        877.3629662269491
12.919896640826888        955.7495371375692        889.1057183740241        877.2222900771425        876.8005257677512        876.8145790018493        876.8022096940748
13.049095607235154        955.0222121652492        888.4917983204017        876.6762572254574        876.2401124789164        876.2538820311269        876.2414531612004
13.178294573643424        954.2948871929293        887.8778782667794        876.1302243737724        875.6796991900817        875.6931850604044        875.680696628326
13.307493540051695        953.5854385460943        887.2778447983484        875.5983281976462        875.1309418701146        875.1441172479908        875.1315693405465
13.436692506459964        952.8759898992593        886.6778113299174        875.0664320215199        874.5821845501474        874.5950494355773        874.582442052767
13.565891472868234        952.1665412524243        886.0777778614864        874.5345358453935        874.0334272301802        874.0459816231637        874.0333147649875
13.695090439276504        951.4823054456973        885.4977786947766        874.0172894465683        873.4972263506461        873.5094462096754        873.4967197131602
13.824289405684771        950.7980696389702        884.9177795280667        873.5000430477428        872.9610254711118        872.972910796187         872.9601246613329
13.953488372093037        950.1138338322431        884.3377803613569        872.9827966489174        872.4248245915777        872.4363753826985        872.4235296095056
14.082687338501309        949.4483604307038        883.7718815927636        872.4797609885288        871.9016934640518        871.9128950629688        871.8999892439582
14.211886304909578        948.7828870291643        883.2059828241703        871.97672532814          871.378562336526         871.389414743239         871.3764488784105
14.341085271317848        948.1174136276248        882.6400840555771        871.4736896677513        870.8554312090001        870.8659344235091        870.8529085128629
14.470284237726116        947.4653128523021        882.0838294842835        870.9841439774295        870.3447618705643        870.3548732912163        870.341786841766
14.59948320413438         946.8132120769792        881.5275749129896        870.4945982871077        869.8340925321285        869.8438121589235        869.8306651706689
14.728682170542646        946.1611113016564        880.9713203416958        870.0050525967858        869.3234231936926        869.3327510266306        869.319543499572
14.857881136950917        945.519328206234         880.4223459625706        869.5301026772705        868.8256359594433        868.8345055874944        868.821236894212
14.987080103359187        944.8775451108116        879.8733715834453        869.0551527577551        868.3278487251938        868.3362601483581        868.322930288852
15.11627906976746         944.2357620153892        879.3243972043201        868.5802028382396        867.8300614909444        867.8380147092217        867.8246236834921
15.245478036175728        943.6168357047073        878.7947562767695        868.1166592868215        867.3465645653883        867.3540199974987        867.3405671724203
15.374677002583995        942.9979093940253        878.2651153492188        867.6531157354032        866.8630676398321        866.8700252857753        866.8565106613485
15.503875968992261        942.3789830833433        877.7354744216682        867.189572183985         866.3795707142759        866.3860305740521        866.3724541502767
15.633074935400531        941.7814353149076        877.2240227468362        866.7357607429204        865.9096055332762        865.9155806803543        865.9019416664838
15.762273901808802        941.1838875464719        876.7125710720042        866.2819493018557        865.4396403522766        865.4451307866564        865.4314291826909
15.891472868217072        940.5863397780362        876.2011193971722        865.8281378607909        864.9696751712769        864.9746808929585        864.9609166988979
16.02067183462534         940.0084778772352        875.7059370185267        865.3839515602903        864.5125777407609        864.5171103683317        864.5032826313419
16.149870801033607        939.4306159764343        875.2107546398811        864.9397652597894        864.0554803102448        864.0595398437049        864.0456485637857
16.279069767441875        938.8527540756334        874.7155722612355        864.4955789592887        863.5983828797288        863.6019693190781        863.5880144962296
16.408268733850143        938.2941562592898        874.2362046466187        864.0525016657575        863.1540596268867        863.1568262812364        863.1428070087195
16.537467700258414        937.7355584429462        873.7568370320018        863.6094243722262        862.7097363740444        862.7116832433945        862.6975995212093
16.666666666666682        937.1769606266026        873.277469417385         863.1663470786949        862.2654131212022        862.2665402055528        862.2523920336993
16.795865633074953        936.6360921837396        872.8125337481882        862.7308289989036        861.833138522164         861.8331384036536        861.8189250518442
16.925064599483225        936.0952237408763        872.3475980789914        862.295310919112         861.4008639231255        861.3997366017542        861.385458069989
17.054263565891493        935.5543552980131        871.8826624097946        861.8597928393206        860.9685893240871        860.9663347998548        860.9519910881339
17.18346253229976         935.0300968654578        871.4320534378161        861.4338592165619        860.5485476111626        860.5450559913156        860.5306463151675
17.312661498708025        934.5058384329024        870.9814444658374        861.0079255938032        860.1285058982378        860.1237771827762        860.1093015422009
17.441860465116292        933.981580000347         870.5308354938588        860.5819919710444        859.708464185313         859.7024983742367        859.6879567692343
17.57105943152456         933.4734850740713        870.0935798882072        860.1667724401485        859.3000122383133        859.2927717643073        859.278163217509
17.700258397932828        932.9653901477955        869.6563242825553        859.7515529092525        858.8915602913136        858.8830451543778        858.8683696657836
17.829457364341096        932.4572952215196        869.2190686769035        859.3363333783565        858.4831083443138        858.4733185444483        858.4585761140581
17.958656330749367        931.9655404153523        868.7954457751085        858.9317493532976        858.0859973340157        858.0748982617067        858.0600858204868
18.08785529715763         931.4737856091848        868.3718228733134        858.5271653282388        857.6888863237175        857.676477978965         857.6615955269154
18.217054263565903        930.9820308030173        867.9481999715183        858.1225813031799        857.2917753134193        857.2780576962232        857.263105233344
18.34625322997417         930.50375034568          867.535874090057         857.7275840981533        856.905630933814         856.8904096936672        856.8753847886429
18.47545219638244         930.0254698883426        867.1235482085955        857.3325868931266        856.5194865542087        856.502761691111         856.4876643439417
18.604651162790717        929.5471894310053        866.711222327134         856.9375896881           856.1333421746034        856.115113688555         856.0999438992404
18.73385012919898         929.0824986532746        866.3103258921742        856.5523938772714        855.7584548411015        855.7384988717754        855.7232542515096
18.863049095607252        928.6178078755437        865.9094294572143        856.1671980664426        855.3835675075995        855.3618840549958        855.3465646037788
18.992248062015516        928.1531170978128        865.5085330222545        855.7820022556137        855.0086801740975        854.9852692382162        854.969874956048
19.12144702842379         927.7022594669919        865.1193740932428        855.4070052414462        854.6445249094928        854.6192599642424        854.6037832474782
19.25064599483206         927.2514018361709        864.7302151642308        855.0320082272785        854.2803696448879        854.2532506902684        854.2376915389084
19.379844961240327        926.80054420535          864.341056235219         854.6570112131109        853.916214380283         853.8872414162944        853.8715998303386
19.509043927648598        926.3641249812719        863.9642417107646        854.2932973968307        853.5637413897722        853.5327768973845        853.5170520658971
19.638242894056862        925.9277057571936        863.58742718631          853.9295835805503        853.2112683992613        853.1783123784744        853.1625043014556
19.76744186046513         925.4912865331154        863.2106126618555        853.5658697642701        852.8587954087503        852.8238478595644        852.8079565370141
19.896640826873405        925.0680884525276        862.8452498849026        853.2121415628206        852.5156978533223        852.4786635608042        852.4626878892769
20.025839793281673        924.6448903719398        862.4798871079496        852.8584133613712        852.1726002978941        852.1334792620438        852.1174192415396
20.155038759689944        924.221692291352         862.1145243309967        852.5046851599217        851.8295027424658        851.7882949632835        851.7721505938022
20.284237726098212        923.812073881699         861.7609675744322        852.1612604259136        851.4969120042092        851.4535076553445        851.4372774500137
20.413436692506476        923.4024554720459        861.4074108178677        851.8178356919054        851.1643212659525        851.1187203474053        851.102404306225
20.542635658914744        922.9928370623927        861.0538540613031        851.4744109578974        850.8317305276959        850.7839330394662        850.7675311624365
20.671834625323015        922.5954131490814        860.7107553282451        851.1403088661001        850.5096176764881        850.4590973137095        850.4426076932677
20.801033591731287        922.19798923577          860.367656595187         850.8062067743026        850.1875048252803        850.1342615879527        850.117684224099
20.930232558139554        921.8005653224586        860.0245578621289        850.4721046825051        849.8653919740725        849.8094258621959        849.7927607549302
21.059431524547826        921.4156556357353        859.691303649475         850.1469953900494        849.5526853287017        849.4938268408708        849.4770718586315
21.188630490956093        921.0307459490119        859.358049436821         849.8218860975934        849.2399786833307        849.1782278195456        849.1613829623326
21.317829457364358        920.6458362622885        859.0247952241671        849.4967768051375        848.9272720379597        848.8626287982203        848.8456940660337
21.44702842377263         920.2722817204227        858.7001705040304        849.179634692904         848.6204955876414        848.5528046580047        848.5357777301515
21.576227390180897        919.8987271785568        858.3755457838936        848.8624925806703        848.3137191373229        848.242980517789         848.2258613942691
21.705426356589168        919.525172636691         858.0509210637567        848.5453504684367        848.0069426870045        847.9331563775733        847.9159450583869
21.83462532299744         919.1635637286868        857.736297834351         848.2375966738318        847.7084825384327        847.6314450746586        847.614139155873
21.9638242894057          918.8019548206823        857.4216746049452        847.9298428792268        847.4100223898608        847.3297337717437        847.312333253359
22.09302325581397         918.440345912678         857.1070513755395        847.622089084622         847.111562241289         847.0280224688288        847.0105273508451
22.22222222222224         918.0899140415779        856.8019534599817        847.3234683792684        846.8231167861045        846.7361623952729        846.7185696864707
22.35142118863051         917.7394821704777        856.4968555444239        847.0248476739147        846.5346713309199        846.4443023217169        846.4266120220962
22.48062015503878         917.3890502993775        856.191757628866         846.726226968561         846.2462258757353        846.152442248161         846.1346543577217