% Model:              Cav_Hex_Unif_flux_v5.1.1 - Lin. Distn.mph
% Version:            COMSOL 5.5.0.359
% Date:               Nov 25 2021, 14:20
% Dimension:          1
% Nodes:              457
% Expressions:        6
% Description:        Line graph
% x                       Height                   Height                   Height                   Height                   Height                   Height
0                         1335.6531791196805       1200.5273289885429       1183.243277231144        1183.3832560248864       1183.3584779628534       1183.3511285762002
0.43859649122806893       1332.8879825528188       1197.3809243860264       1180.0543202052534       1180.1944196730435       1180.1696070004646       1180.16224775329
0.8771929824561379        1330.1227859859566       1194.2345197835098       1176.8653631793627       1177.0055833212007       1176.980736038076        1176.97336693038
1.3157894736842068        1327.3575894190947       1191.0881151809933       1173.676406153472        1173.8167469693578       1173.7918650756872       1173.78448610747
1.7543859649122757        1326.6990338017208       1189.2488234664477       1171.684838681633        1171.8255006611143       1171.8004883545052       1171.7930718766904
2.192982456140345         1326.0404781843465       1187.4095317519018       1169.693271209794        1169.834254352871        1169.809111633323        1169.8016576459106
2.6315789473684137        1325.3819225669724       1185.5702400373561       1167.7017037379549       1167.8430080446276       1167.817734912141        1167.8102434151308
3.070175438596483         1325.6478263256824       1184.4528669652414       1166.349920673821        1166.491638493985        1166.4661752742813       1166.4586291533544
3.508771929824552         1325.9137300843922       1183.3354938931263       1164.9981376096873       1165.140268943342        1165.1146156364216       1165.107014891578
3.947368421052621         1326.1796338431022       1182.2181208210116       1163.6463545455535       1163.7888993926995       1163.7630559985619       1163.7554006298017
4.3859649122806905        1326.8625229750621       1181.648638590103        1162.7474309216238       1162.8899784158266       1162.8638854835995       1162.856159492868
4.824561403508759         1327.5454121070218       1181.0791563591943       1161.848507297694        1161.991057438954        1161.9647149686373       1161.9569183559342
5.263157894736827         1328.2283012389814       1180.5096741282857       1160.9495836737642       1161.092136462081        1161.0655444536749       1161.0576772190007
5.701754385964897         1329.0236313782793       1180.3570045936347       1160.347745769259        1160.4899995160206       1160.463089153133        1160.4551352897383
6.140350877192967         1329.818961517577        1180.2043350589834       1159.7459078647541       1159.88786256996         1159.860633852591        1159.8525933604758
6.578947368421037         1330.614291656875        1180.0516655243323       1159.144069960249        1159.2857256238992       1159.258178552049        1159.2500514312133
7.017543859649106         1331.3232226135449       1180.1265948094165       1158.6654211080377       1158.8063962362633       1158.7784774087581       1158.7702528517834
7.456140350877175         1332.0321535702146       1180.2015240945007       1158.186772255826        1158.327066848627        1158.2987762654673       1158.2904542723538
7.894736842105244         1332.7410845268844       1180.2764533795848       1157.7081234036148       1157.8477374609909       1157.8190751221764       1157.810655692924
8.333333333333314         1333.22349044562         1180.5358180013768       1157.2966747508349       1157.4351371913203       1157.4060455569065       1157.3975180891537
8.771929824561383         1333.7058963643553       1180.7951826231688       1156.8852260980548       1157.02253692165         1156.9930159916366       1156.9843804853833
9.210526315789451         1334.188302283091        1181.0545472449608       1156.473777445275        1156.6099366519795       1156.5799864263668       1156.571242881613
9.649122807017521         1334.0522712596048       1181.4126993462437       1156.0010255784152       1156.135710157018        1156.1052697371836       1156.096406371872
10.08771929824559         1333.9162402361185       1181.7708514475266       1155.5282737115554       1155.661483662056        1155.6305530480001       1155.6215698621309
10.52631578947366         1333.7802092126321       1182.1290035488096       1155.0555218446957       1155.1872571670942       1155.1558363588167       1155.14673335239
10.96491228070173         1333.039342180993        1182.541482496514        1154.479299633653        1154.6094559752585       1154.5774991163034       1154.5682667075491
11.403508771929795        1332.2984751493534       1182.953961444218        1153.9030774226103       1154.0316547834227       1153.9991618737904       1153.9898000627086
11.842105263157865        1331.5576081177142       1183.3664403919224       1153.3268552115676       1153.453853591587        1153.4208246312771       1153.4113334178678
12.280701754385934        1330.4043676500419       1183.8221459556023       1152.6558559099176       1152.7808840244525       1152.747286763452        1152.7376584632934
12.719298245614002        1329.2511271823694       1184.2778515192822       1151.9848566082676       1152.1079144573177       1152.0737488956265       1152.063983508719
13.15789473684207         1328.097886714697        1184.733557082962        1151.3138573066176       1151.4349448901833       1151.4002110278013       1151.3903085541447
13.596491228070139        1326.4755779792652       1185.2403957283689       1150.503599449413        1150.6217751658328       1150.5864365194102       1150.5763882798854
14.03508771929821         1324.853269243833        1185.7472343737754       1149.6933415922085       1149.808605441482        1149.772662011019        1149.762468005626
14.47368421052628         1323.230960508401        1186.2540730191822       1148.883083735004        1148.9954357171314       1148.958887502628        1148.9485477313667
14.91228070175435         1321.0138392699573       1186.786318357664        1147.8426830030953       1147.9503606750045       1147.9131690924798       1147.9026748299957
15.350877192982416        1318.7967180315134       1187.318563696146        1146.8022822711866       1146.9052856328774       1146.867450682332        1146.8568019286245
15.789473684210485        1316.5795967930694       1187.8508090346277       1145.761881539278        1145.8602105907503       1145.821732272184        1145.8109290272535
16.228070175438553        1313.967618731463        1188.453252299655        1144.5482725638933       1144.639825403763        1144.6006664267943       1144.5897007061228
16.66666666666662         1311.3556406698567       1189.0556955646823       1143.3346635885086       1143.4194402167757       1143.3796005814045       1143.3684723849924
17.10526315789469         1308.7436626082504       1189.6581388297095       1142.121054613124        1142.1990550297885       1142.1585347360149       1142.1472440638618
17.543859649122762        1305.9086975657701       1190.3415853044496       1140.7640878793986       1140.8342688507717       1140.7930340889245       1140.7815742091811
17.98245614035083         1303.0737325232897       1191.0250317791897       1139.407121145673        1139.4694826717546       1139.4275334418344       1139.4159043545003
18.4210526315789          1300.2387674808094       1191.7084782539298       1138.0501544119477       1138.1046964927377       1138.062032794744        1138.0502344998197
18.85964912280697         1297.2064450579137       1192.4752299033978       1136.5378208148559       1136.5836359779591       1136.540215485941        1136.5282400773788
19.29824561403504         1294.1741226350175       1193.2419815528658       1135.0254872177643       1135.0625754631803       1135.0183981771377       1135.0062456549376
19.73684210526311         1291.1418002121216       1194.0087332023338       1133.5131536206725       1133.5415149484015       1133.4965808683346       1133.4842512324967
20.175438596491183        1287.8632657236133       1194.478270354863        1131.8521294216891       1131.8704241828916       1131.8246844103232       1131.8121688562987
20.61403508771925         1284.5847312351048       1194.947807507392        1130.1911052227056       1130.1993334173815       1130.1527879523119       1130.1400864801005
21.05263157894732         1281.3061967465965       1195.4173446599211       1128.5300810237222       1128.5282426518716       1128.4808914943005       1128.4680041039026
21.49122807017539         1277.9145663272145       1195.076972539288        1126.7585639747083       1126.7447530192123       1126.6965514353171       1126.6834703336388
21.929824561403457        1274.5229359078326       1194.7366004186545       1124.9870469256944       1124.961263386553        1124.9122113763335       1124.8989365633747
22.368421052631522        1271.1313054884506       1194.3962282980212       1123.2155298766804       1123.1777737538935       1123.1278713173501       1123.1144027931107
22.807017543859594        1267.6152791197364       1193.2609768491125       1121.3425182767178       1121.2906964546337       1121.2399044210267       1121.2262354765046
23.24561403508766         1264.0992527510223       1192.1257254002037       1119.4695066767551       1119.403619155374        1119.351937524703        1119.3380681598983
23.68421052631573         1260.583226382308        1190.990473951295        1117.5964950767925       1117.5165418561141       1117.4639706283795       1117.4499008432922
24.122807017543803        1256.9817734767876       1189.1016511792823       1115.6062937743197       1115.5097563063757       1115.4562469393295       1115.441968325827
24.561403508771875        1253.380320571267        1187.2128284072696       1113.6160924718472       1113.502970756637        1113.4485232502798       1113.4340358083618
24.999999999999943        1249.7788676657465       1185.324005635257        1111.6258911693744       1111.4961852068986       1111.4407995612298       1111.4261032908967
25.438596491228015        1246.094430552994        1182.8046064760654       1109.5183897382615       1109.3696290614273       1109.3132537737467       1109.2983397923513
25.877192982456084        1242.4099934402414       1180.2852073168738       1107.4108883071483       1107.243072915956        1107.1857079862634       1107.1705762938057
26.31578947368415         1238.725556327489        1177.7658081576822       1105.3033868760353       1105.1165167704846       1105.0581621987803       1105.0428127952603
26.754385964912217        1235.016775025437        1174.9551346857672       1103.1307615141482       1102.9221916593824       1102.862805327358        1102.847230882624
27.19298245614029         1231.3079937233852       1172.1444612138523       1100.9581361522607       1100.7278665482802       1100.667448455936        1100.6516489699877
27.631578947368357        1227.5992124213333       1169.3337877419374       1098.7855107903736       1098.533541437178        1098.4720915845137       1098.4560670573514
28.070175438596426        1223.9183528062865       1166.37898100768         1096.5525240421266       1096.2757302281072       1096.2132062734725       1096.1969492942246
28.508771929824494        1220.2374931912395       1163.4241742734228       1094.3195372938796       1094.0179190190365       1093.954320962431        1093.9378315310978
28.947368421052563        1216.5566335761928       1160.4693675391654       1092.0865505456327       1091.7601078099658       1091.6954356513895       1091.678713767971
29.385964912280635        1212.8874108943537       1157.3476819702475       1089.7916050077602       1089.4369466761154       1089.3711462898868       1089.3541824087142
29.8245614035087          1209.2181882125144       1154.2259964013297       1087.4966594698876       1087.113785542265        1087.046856928384        1087.0296510494572
30.263157894736768        1205.5489655306753       1151.1043108324118       1085.201713932015        1084.7906244084147       1084.7225675668813       1084.7051196902005
30.701754385964836        1201.9107498914914       1147.8975884856115       1082.8804291680617       1082.436594040689        1082.3673532592084       1082.349653343874
31.140350877192905        1198.2725342523072       1144.6908661388113       1080.559144404108        1080.0825636729633       1080.0121389515352       1079.9941869975476
31.578947368420977        1194.634318613123        1141.484143792011        1078.2378596401545       1077.7285333052375       1077.656924643862        1077.638720651221
32.01754385964905         1191.0176762908834       1138.2406720838153       1075.9086065608174       1075.3620766027295       1075.2892401356792       1075.2707761842294
32.456140350877114        1187.4010339686436       1134.9972003756193       1073.5793534814804       1072.9956199002215       1072.9215556274962       1072.9028317172374
32.89473684210518         1183.784391646404        1131.7537286674235       1071.2501004021433       1070.6291631977135       1070.5538711193133       1070.5348872502457
33.33333333333326         1180.194120699075        1128.5024901189631       1068.916555121398        1068.2519803434222       1068.1754067133181       1068.156153287682
33.771929824561326        1176.6038497517459       1125.2512515705027       1066.5830098406525       1065.8747974891307       1065.7969423073228       1065.7774193251182
34.210526315789394        1173.013578804417        1122.0000130220424       1064.249464559907        1063.4976146348395       1063.4184779013274       1063.3986853625545
34.649122807017456        1169.464339804008        1118.702668513157        1061.8938300100306       1061.0916828009138       1061.011194618918        1060.9911210282728
35.087719298245524        1165.9151008035988       1115.4053240042717       1059.5381954601542       1058.6857509669883       1058.6039113365082       1058.5835566939909
35.526315789473585        1162.3658618031898       1112.1079794953864       1057.1825609102777       1056.2798191330626       1056.1966280540987       1056.175992359709
35.96491228070167         1158.8752293244934       1108.8459702516923       1054.828365350371        1053.870219712689        1053.7856148737478       1053.7646886460745
36.40350877192974         1155.3845968457972       1105.5839610079981       1052.4741697904644       1051.4606202923153       1051.3746016933967       1051.35338493244
36.842105263157805        1151.8939643671008       1102.321951764304        1050.1199742305578       1049.0510208719415       1048.9635885130456       1048.9420812188055
37.28070175438588         1148.4617425735416       1099.1077258911737       1047.7753737118296       1046.6455708344824       1046.5566671688355       1046.534860612836
37.71929824561394         1145.0295207799822       1095.8935000180431       1045.4307731931012       1044.240120797023        1044.1497458246256       1044.1276400068662
38.15789473684202         1141.597298986423        1092.6792741449126       1043.086172674373        1041.8346707595638       1041.7428244804155       1041.7204194008966
38.596491228070086        1138.2545400189938       1089.532675494738        1040.7537139082922       1039.43321866759         1039.3398221068205       1039.317105919327
39.03508771929816         1134.9117810515647       1086.3860768445631       1038.4212551422113       1037.0317665756163       1036.9368197332253       1036.9137924377576
39.47368421052623         1131.5690220841354       1083.2394781943883       1036.0887963761304       1034.6303144836425       1034.5338173596301       1034.510478956188
39.912280701754305        1128.3296924665335       1080.17737116592         1033.791259278015        1032.253039547939        1032.1549076603574       1032.1312452725374
40.35087719298237         1125.0903628489316       1077.1152641374517       1031.4937221798996       1029.8757646122353       1029.7759979610846       1029.7520115888865
40.78947368421043         1121.8510332313297       1074.0531571089834       1029.1961850817843       1027.4984896765318       1027.3970882618119       1027.3727779052358
41.2280701754385          1118.6935598666587       1071.0570923975372       1026.9284274498366       1025.1429377863994       1025.0398420432718       1025.0151980913677
41.66666666666657         1115.5360865019877       1068.0610276860907       1024.6606698178887       1022.7873858962669       1022.6825958247317       1022.6576182774994
42.10526315789464         1112.3786131373167       1065.0649629746445       1022.3929121859409       1020.4318340061344       1020.3253496061917       1020.3000384636313
42.543859649122716        1109.3015635574277       1062.138769344628        1020.1640384592409       1018.1056134674669       1017.9973592763022       1017.9717027320474
42.982456140350784        1106.2245139775387       1059.2125757146114       1017.9351647325409       1015.7793929287992       1015.6693689464126       1015.6433670004635
43.42105263157885         1103.1474643976496       1056.2863820845948       1015.7062910058409       1013.4531723901315       1013.3413786165231       1013.3150312688796
43.85964912280692         1100.109889496397        1053.3918693077542       1013.5127661516711       1011.1474904672028       1011.0337661585135       1011.0070591747307
44.29824561403498         1097.0723145951442       1050.4973565309135       1011.3192412975013       1008.8418085442739       1008.7261537005037       1008.6990870805816
44.736842105263044        1094.0347396938914       1047.6028437540729       1009.1257164433316       1006.5361266213451       1006.418541242494        1006.3911149864326
45.17543859649112         1091.060954149667        1044.7655453437978       1006.9701146839316       1004.2556966119963       1004.1360264352147       1004.108229121729
45.61403508771919         1088.0871686054422       1041.9282469335226       1004.8145129245314       1001.9752666026473       1001.8535116279352       1001.8253432570252
46.05263157894726         1085.1133830612175       1039.0909485232476       1002.6589111651314       999.6948365932983        999.5709968206556        999.5424573923215
46.49122807017533         1082.1834276391685       1036.2974378652077       1000.5366710196133       997.4355003536867        997.3094427543841        997.2805213537871
46.92982456140341         1079.2534722171197       1033.5039272071676       998.414430874095         995.176164114075         995.0478886881125        995.0185853152526
47.368421052631476        1076.3235167950706       1030.7104165491278       996.2921907285769        992.9168278744635        992.786334621841         992.7566492767182
47.80701754385955         1073.4645162633528       1027.9868461720787       994.2150278248439        990.681773929862         990.5488923639026        990.518809427506
48.24561403508762         1070.605515731635        1025.2632757950296       992.1378649211107        988.4467199852603        988.3114501059641        988.2809695782935
48.68421052631568         1067.7465151999172       1022.5397054179804       990.0607020173775        986.2116660406588        986.0740078480256        986.0431297290811
49.12280701754376         1064.9568618586097       1019.8753917092796       988.0288944119754        984.0024965404114        983.8623146707878        983.8310245745611
49.56140350877182         1062.1672085173022       1017.2110780005787       985.9970868065732        981.7933270401637        981.6506214935497        981.6189194200409
49.99999999999989         1059.3775551759948       1014.5467642918778       983.965279201171         979.5841575399161        979.4389283163117        979.4068142655208
50.43859649122796         1056.6511486663264       1011.9421108120565       981.9749246198365        977.3993571384738        977.2514949077884        977.2189575330765
50.87719298245604         1053.924742156658        1009.3374573322351       979.9845700385019        975.2145567370313        975.0640614992649        975.0311008006322
51.315789473684106        1051.1983356469898       1006.7328038524137       977.9942154571673        973.029756335589         972.8766280907415        972.8432440681879
51.75438596491218         1048.5682591088412       1004.219988653639        976.076926457492         970.8898423600928        970.7338369911467        970.7000130296523
52.19298245614025         1045.9381825706926       1001.7071734548642       974.1596374578165        968.7499283845964        968.591045891552         968.5567819911165
52.63157894736832         1043.308106032544        999.1943582560896        972.2423484581411        966.6100144091           966.4482547919572        966.4135509525807
53.070175438596394        1040.7440714360228       996.7366461220314        970.3948161759928        964.5117432004159        964.34673241661          964.3115703097237
53.50877192982446         1038.1800368395016       994.2789339879731        968.5472838938442        962.4134719917317        962.2452100412628        962.2095896668666
53.94736842105254         1035.6160022429804       991.821221853915         966.6997516116957        960.3152007830477        960.1436876659156        960.1076090240094
54.385964912280606        1033.101417587257        989.4102299440021        964.9061166458384        958.2475470594447        958.0724567625194        958.0359065282988
54.82456140350868         1030.5868329315333       986.9992380340891        963.1124816799811        956.1798933358417        956.001225859123         955.9642040325881
55.26315789473675         1028.07224827581         984.5882461241761        961.3188467141239        954.1122396122387        953.9299949557267        953.8925015368774
55.70175438596482         1025.605532762679        982.2250071880661        959.5882819274809        952.0770107024078        951.8908566108585        951.8528759204881
56.140350877192894        1023.1388172495482       979.861768251956         957.857717140838         950.0417817925769        949.85171826599          949.8132503040989
56.57894736842096         1020.6721017364174       977.4985293158461        956.127152354195         948.006552882746         947.8125799211216        947.7736246877097
57.01754385964904         1018.2950413388609       975.2191353888516        954.4804912686365        946.0162015626405        945.8179117348147        945.7784477945723
57.45614035087711         1015.9179809413042       972.9397414618569        952.8338301830778        944.025850242535         943.8232435485078        943.7832709014349
57.89473684210518         1013.5409205437476       970.6603475348622        951.1871690975191        942.0354989224294        941.8285753622009        941.7880940082974
58.33333333333324         1011.2370142016802       968.445116172894         949.61772103995          940.0902538460005        939.8786493406517        939.8376410449612
58.77192982456131         1008.9331078596127       966.2298848109257        948.0482729823806        938.1450087695714        937.9287233191025        937.8871880816248
59.210526315789366        1006.6292015175453       964.0146534489575        946.4788249248113        936.1997636931424        935.9787972975532        935.9367351182885
59.64912280701744         1004.3861595596637       961.8567079785981        944.966098421371         934.2952841675738        934.0692660824926        934.0266605509928
60.08771929824551         1002.143117601782        959.6987625082387        943.4533719179307        932.3908046420049        932.1597348674319        932.116585983697
60.52631578947358         999.9000756439003        957.5408170378793        941.9406454144903        930.4863251164362        930.2502036523713        930.2065114164011
60.964912280701654        997.712976448289         955.4349188364365        940.3958717763559        928.6335146487196        928.3920262931546        928.3477677763038
61.40350877192971         995.5258772526777        953.3290206349935        938.8510981382213        926.7807041810029        926.5338489339376        926.4890241362064
61.84210526315778         993.3387780570663        951.2231224335507        937.3063245000868        924.9278937132862        924.6756715747207        924.630280496109
62.28070175438585         991.2360241288777        949.1980076645925        935.6881673961383        923.1319330333658        922.8740834920428        922.8281020820408
62.71929824561393         989.1332702006889        947.1728928956343        934.0700102921897        921.3359723534453        921.0724954093648        921.0259236679725
63.157894736841996        987.0305162725001        945.1477781266761        932.4518531882412        919.5400116735249        919.2709073266868        919.2237452539042
63.596491228070064        984.9864155851047        943.1765511507776        930.7928972145149        917.7801371208649        917.5048657087211        917.4570952873149
64.03508771929813         982.9423148977091        941.205324174879         929.1339412407885        916.0202625682048        915.7388240907552        915.6904453207254
64.47368421052622         980.8982142103137        939.2340971989804        927.4749852670623        914.2603880155447        913.9727824727894        913.923795354136
64.91228070175428         978.9072394118929        937.312874464947         925.7730979465584        912.5367534778424        912.2416333361214        912.192016444536
65.35087719298234         976.916264613472         935.3916517309133        924.0712106260545        910.8131189401399        910.5104841994532        910.4602375349357
65.7894736842104          974.9252898150511        933.4704289968797        922.3693233055506        909.0894844024375        908.7793350627851        908.7284586253354
66.22807017543848         972.9964116716166        931.6102682752154        920.6397387173058        907.4143020802005        907.0957776927248        907.0442441712773
66.66666666666654         971.0675335281818        929.750107553551         918.910154129061         905.7391197579634        905.4122203226644        905.3600297172192
67.1052631578946          969.138655384747         927.8899468318865        917.1805695408162        904.0639374357263        903.7286629526042        903.6758152631611
67.54385964912267         967.2666844851956        926.0866799932952        915.4657286484812        902.4315450690884        902.0873284528333        902.0337995797663
67.98245614035073         965.394713585644         924.2834131547037        913.750887756146         900.7991527024503        900.4459939530622        900.3917838963714
68.42105263157882         963.5227426860926        922.4801463161122        912.0360468638108        899.1667603358122        898.8046594532912        898.7497682129766
68.8596491228069          961.6914554662059        920.7170576296575        910.3356610659664        897.5685714165639        897.1968672368721        897.1412733321816
69.29824561403497         959.8601682463192        918.9539689432025        908.6352752681217        895.9703824973154        895.5890750204529        895.5327784513864
69.73684210526304         958.0288810264325        917.1908802567477        906.9348894702771        894.372193578067         893.9812828040338        893.9242835705913
70.17543859649112         956.2700923834234        915.4986223242656        905.2836893515664        892.8212311455553        892.4197817897643        892.3620507414819
70.61403508771917         954.5113037404142        913.8063643917834        903.6324892328555        891.2702687130434        890.8582807754948        890.7998179123723
71.05263157894723         952.752515097405         912.1141064593013        901.9812891141447        889.7193062805316        889.2967797612253        889.2375850832627
71.4912280701753          951.0375701946142        910.4609462255278        900.3414590780477        888.2126051121992        887.7785457165211        887.7185884289107
71.92982456140336         949.3226252918233        908.8077859917541        898.7016290419506        886.7059039438667        886.2603116718167        886.1995917745586
72.36842105263145         947.6076803890325        907.1546257579806        897.0617990058536        885.1992027755342        884.7420776271124        884.6805951202066
72.80701754385952         945.9333410157593        905.5410617756819        895.4459878876845        883.7255639038958        883.2559765219169        883.1937060525971
73.24561403508758         944.2590016424859        903.9274977933829        893.8301767695154        882.2519250322572        881.7698754167212        881.7068169849875
73.68421052631564         942.5846622692127        902.3139338110841        892.2143656513464        880.7782861606186        880.2837743115257        880.219927917378
74.12280701754374         940.9533245958547        900.7423127885095        890.6338828987889        879.3351468871864        878.8271964131054        878.7625359559602
74.56140350877179         939.3219869224966        899.1706917659346        889.0534001462313        877.8920076137541        877.370618514685         877.3051439945423
74.99999999999986         937.6906492491386        897.5990707433599        887.4729173936738        876.4488683403218        875.9140406162647        875.8477520331245
75.43859649122794         936.1169682315724        896.0829846389543        885.9431778222322        875.0467646785089        874.4969458899328        874.42980925814
75.877192982456           934.5432872140062        894.5668985345484        884.4134382507905        873.6446610166957        873.0798511636008        873.0118664831554