% Model:              Cav_Hex_Unif_flux_v5.1 - Base Case.mph
% Version:            COMSOL 5.5.0.359
% Date:               Nov 3 2021, 12:07
% Table:              Table 11 - Surface Integration 1 - Avg. T_solid(z)
% P_to_m (kJ/kg)         z_cpl (mm)               T_s_domain_avg(z) (K)    T_s_surface_avg(z) (K)
100                      0                        1003.5989166768          0
100                      1                        996.4971294996549        0
100                      2                        990.1641726997448        0
100                      3                        983.5109765259499        0
100                      4                        976.2183136963946        0
100                      5                        968.6260321236035        0
100                      6                        960.9117460128926        0
100                      7                        953.2657444003935        0
100                      8                        945.8921958335613        0
100                      9.000000000000002        938.9352410988756        0
100                      10                       932.364853496257         0
100                      11                       926.1906036754148        0
100                      12                       920.3960909360952        0
100                      13.000000000000002       914.994927782602         0
100                      14                       909.980437956616         0
100                      15                       905.3214600212369        0
100                      16                       900.9841501390478        0
100                      17                       896.9905881576648        0
100                      18.000000000000004       893.2734080932747        0
100                      19                       889.8141279394168        0
100                      20                       886.6018070562287        0
100                      21                       883.6452194538793        0
100                      22                       880.9050092665535        0
100                      23                       878.3593503580676        0
100                      24                       875.9907654674855        0
100                      25                       873.8099187499239        0
100                      26.000000000000004       871.7720765101792        0
100                      27                       869.8735872462503        0
100                      28                       868.1100717402842        0
100                      29                       866.4735677217269        0
100                      30                       864.9597415173778        0
100                      31                       863.5595634503919        0
100                      32                       862.2709830321623        0
100                      33                       861.0793436685           0
100                      34                       859.9725550240869        0
100                      35                       858.9497032741727        0
100                      36.00000000000001        858.0098154454856        0
100                      37                       857.1411010816603        0
100                      38                       856.3259933411114        0
100                      39                       855.566601568563         0
100                      40                       854.8656520276901        0
100                      41                       854.2176538584341        0
100                      42                       853.6187754206263        0
100                      43                       853.0662200069513        0
100                      44                       852.5591135370369        0
100                      45                       852.0928900795236        0
100                      46                       851.6632336961313        0
100                      47                       851.263087414939         0
100                      48                       850.8897441602671        0
100                      49                       850.5445098842041        0
100                      50                       850.2248394051151        0
200                      0                        1003.5989166768          0
200                      1                        996.4971294996549        0
200                      2                        990.1641726997448        0
200                      3                        983.5109765259499        0
200                      4                        976.2183136963946        0
200                      5                        968.6260321236037        0
200                      6                        960.9117460128924        0
200                      7                        953.2657444003933        0
200                      8                        945.8921958335615        0
200                      9.000000000000002        938.9352410988756        0
200                      10                       932.3648534962568        0
200                      11                       926.1906036754148        0
200                      12                       920.3960909360952        0
200                      13.000000000000002       914.994927782602         0
200                      14                       909.980437956616         0
200                      15                       905.3214600212369        0
200                      16                       900.9841501390478        0
200                      17                       896.9905881576648        0
200                      18.000000000000004       893.2734080932747        0
200                      19                       889.8141279394168        0
200                      20                       886.6018070562287        0
200                      21                       883.6452194538793        0
200                      22                       880.9050092665535        0
200                      23                       878.3593503580676        0
200                      24                       875.9907654674855        0
200                      25                       873.8099187499241        0
200                      26.000000000000004       871.7720765101792        0
200                      27                       869.8735872462503        0
200                      28                       868.1100717402842        0
200                      29                       866.4735677217269        0
200                      30                       864.9597415173778        0
200                      31                       863.5595634503919        0
200                      32                       862.2709830321622        0
200                      33                       861.0793436685           0
200                      34                       859.972555024087         0
200                      35                       858.9497032741727        0
200                      36.00000000000001        858.0098154454856        0
200                      37                       857.1411010816599        0
200                      38                       856.3259933411114        0
200                      39                       855.566601568563         0
200                      40                       854.8656520276901        0
200                      41                       854.2176538584341        0
200                      42                       853.6187754206263        0
200                      43                       853.0662200069514        0
200                      44                       852.5591135370365        0
200                      45                       852.0928900795236        0
200                      46                       851.6632336961313        0
200                      47                       851.263087414939         0
200                      48                       850.8897441602671        0
200                      49                       850.5445098842041        0
200                      50                       850.2248394051151        0
300                      0                        1003.5989166768          0
300                      1                        996.497129499655         0
300                      2                        990.1641726997449        0
300                      3                        983.5109765259501        0
300                      4                        976.2183136963946        0
300                      5                        968.6260321236037        0
300                      6                        960.9117460128923        0
300                      7                        953.2657444003933        0
300                      8                        945.8921958335615        0
300                      9.000000000000002        938.9352410988756        0
300                      10                       932.3648534962568        0
300                      11                       926.1906036754148        0
300                      12                       920.3960909360952        0
300                      13.000000000000002       914.994927782602         0
300                      14                       909.980437956616         0
300                      15                       905.3214600212369        0
300                      16                       900.9841501390478        0
300                      17                       896.9905881576648        0
300                      18.000000000000004       893.2734080932747        0
300                      19                       889.8141279394168        0
300                      20                       886.6018070562287        0
300                      21                       883.6452194538793        0
300                      22                       880.9050092665535        0
300                      23                       878.3593503580676        0
300                      24                       875.9907654674855        0
300                      25                       873.8099187499241        0
300                      26.000000000000004       871.7720765101792        0
300                      27                       869.8735872462503        0
300                      28                       868.1100717402842        0
300                      29                       866.4735677217269        0
300                      30                       864.9597415173778        0
300                      31                       863.5595634503919        0
300                      32                       862.2709830321623        0
300                      33                       861.0793436685           0
300                      34                       859.9725550240869        0
300                      35                       858.9497032741727        0
300                      36.00000000000001        858.0098154454856        0
300                      37                       857.1411010816603        0
300                      38                       856.3259933411114        0
300                      39                       855.566601568563         0
300                      40                       854.8656520276901        0
300                      41                       854.2176538584341        0
300                      42                       853.6187754206263        0
300                      43                       853.0662200069513        0
300                      44                       852.5591135370369        0
300                      45                       852.0928900795236        0
300                      46                       851.6632336961313        0
300                      47                       851.263087414939         0
300                      48                       850.8897441602671        0
300                      49                       850.5445098842041        0
300                      50                       850.2248394051151        0
400                      0                        1003.5989166768          0
400                      1                        996.4971294996549        0
400                      2                        990.1641726997448        0
400                      3                        983.5109765259501        0
400                      4                        976.2183136963946        0
400                      5                        968.6260321236035        0
400                      6                        960.9117460128926        0
400                      7                        953.2657444003935        0
400                      8                        945.8921958335613        0
400                      9.000000000000002        938.9352410988756        0
400                      10                       932.364853496257         0
400                      11                       926.1906036754148        0
400                      12                       920.3960909360952        0
400                      13.000000000000002       914.994927782602         0
400                      14                       909.980437956616         0
400                      15                       905.3214600212369        0
400                      16                       900.9841501390478        0
400                      17                       896.9905881576648        0
400                      18.000000000000004       893.2734080932747        0
400                      19                       889.8141279394168        0
400                      20                       886.6018070562287        0
400                      21                       883.6452194538793        0
400                      22                       880.9050092665535        0
400                      23                       878.3593503580676        0
400                      24                       875.9907654674855        0
400                      25                       873.8099187499239        0
400                      26.000000000000004       871.7720765101792        0
400                      27                       869.8735872462503        0
400                      28                       868.1100717402842        0
400                      29                       866.4735677217269        0
400                      30                       864.9597415173778        0
400                      31                       863.5595634503919        0
400                      32                       862.2709830321623        0
400                      33                       861.0793436685           0
400                      34                       859.9725550240869        0
400                      35                       858.9497032741727        0
400                      36.00000000000001        858.0098154454856        0
400                      37                       857.1411010816603        0
400                      38                       856.3259933411114        0
400                      39                       855.566601568563         0
400                      40                       854.8656520276901        0
400                      41                       854.2176538584341        0
400                      42                       853.6187754206263        0
400                      43                       853.0662200069513        0
400                      44                       852.5591135370369        0
400                      45                       852.0928900795236        0
400                      46                       851.6632336961313        0
400                      47                       851.263087414939         0
400                      48                       850.8897441602671        0
400                      49                       850.5445098842041        0
400                      50                       850.2248394051151        0
500                      0                        1003.5989166768          0
500                      1                        996.497129499655         0
500                      2                        990.1641726997449        0
500                      3                        983.5109765259501        0
500                      4                        976.2183136963946        0
500                      5                        968.6260321236037        0
500                      6                        960.9117460128923        0
500                      7                        953.2657444003933        0
500                      8                        945.8921958335613        0
500                      9.000000000000002        938.9352410988756        0
500                      10                       932.3648534962568        0
500                      11                       926.190603675415         0
500                      12                       920.3960909360952        0
500                      13.000000000000002       914.994927782602         0
500                      14                       909.9804379566161        0
500                      15                       905.3214600212369        0
500                      16                       900.9841501390478        0
500                      17                       896.9905881576648        0
500                      18.000000000000004       893.2734080932747        0
500                      19                       889.8141279394168        0
500                      20                       886.6018070562287        0
500                      21                       883.6452194538793        0
500                      22                       880.9050092665535        0
500                      23                       878.3593503580676        0
500                      24                       875.9907654674855        0
500                      25                       873.8099187499239        0
500                      26.000000000000004       871.7720765101792        0
500                      27                       869.8735872462503        0
500                      28                       868.1100717402842        0
500                      29                       866.4735677217269        0
500                      30                       864.9597415173778        0
500                      31                       863.5595634503919        0
500                      32                       862.2709830321623        0
500                      33                       861.0793436685           0
500                      34                       859.9725550240869        0
500                      35                       858.9497032741727        0
500                      36.00000000000001        858.0098154454856        0
500                      37                       857.1411010816599        0
500                      38                       856.3259933411114        0
500                      39                       855.566601568563         0
500                      40                       854.8656520276901        0
500                      41                       854.2176538584341        0
500                      42                       853.6187754206263        0
500                      43                       853.0662200069513        0
500                      44                       852.5591135370369        0
500                      45                       852.0928900795236        0
500                      46                       851.6632336961313        0
500                      47                       851.263087414939         0
500                      48                       850.8897441602671        0
500                      49                       850.5445098842041        0
500                      50                       850.2248394051151        0
600                      0                        1003.5989166767998       0
600                      1                        996.4971294996549        0
600                      2                        990.1641726997449        0
600                      3                        983.51097652595          0
600                      4                        976.2183136963946        0
600                      5                        968.6260321236037        0
600                      6                        960.9117460128923        0
600                      7                        953.2657444003933        0
600                      8                        945.8921958335613        0
600                      9.000000000000002        938.9352410988756        0
600                      10                       932.364853496257         0
600                      11                       926.190603675415         0
600                      12                       920.3960909360952        0
600                      13.000000000000002       914.994927782602         0
600                      14                       909.980437956616         0
600                      15                       905.3214600212369        0
600                      16                       900.9841501390478        0
600                      17                       896.9905881576648        0
600                      18.000000000000004       893.2734080932747        0
600                      19                       889.8141279394168        0
600                      20                       886.6018070562287        0
600                      21                       883.6452194538793        0
600                      22                       880.9050092665535        0
600                      23                       878.3593503580676        0
600                      24                       875.9907654674855        0
600                      25                       873.8099187499239        0
600                      26.000000000000004       871.7720765101792        0
600                      27                       869.8735872462503        0
600                      28                       868.1100717402842        0
600                      29                       866.4735677217269        0
600                      30                       864.9597415173778        0
600                      31                       863.5595634503919        0
600                      32                       862.2709830321623        0
600                      33                       861.0793436685           0
600                      34                       859.9725550240869        0
600                      35                       858.9497032741727        0
600                      36.00000000000001        858.0098154454856        0
600                      37                       857.1411010816603        0
600                      38                       856.3259933411114        0
600                      39                       855.566601568563         0
600                      40                       854.8656520276901        0
600                      41                       854.2176538584341        0
600                      42                       853.6187754206263        0
600                      43                       853.0662200069513        0
600                      44                       852.5591135370369        0
600                      45                       852.0928900795236        0
600                      46                       851.6632336961313        0
600                      47                       851.263087414939         0
600                      48                       850.8897441602671        0
600                      49                       850.5445098842041        0
600                      50                       850.2248394051151        0
700                      0                        1003.5989166768          0
700                      1                        996.497129499655         0
700                      2                        990.1641726997449        0
700                      3                        983.51097652595          0
700                      4                        976.2183136963946        0
700                      5                        968.6260321236037        0
700                      6                        960.9117460128923        0
700                      7                        953.2657444003933        0
700                      8                        945.8921958335615        0
700                      9.000000000000002        938.9352410988756        0
700                      10                       932.3648534962568        0
700                      11                       926.1906036754148        0
700                      12                       920.3960909360952        0
700                      13.000000000000002       914.994927782602         0
700                      14                       909.980437956616         0
700                      15                       905.3214600212369        0
700                      16                       900.9841501390478        0
700                      17                       896.9905881576648        0
700                      18.000000000000004       893.2734080932747        0
700                      19                       889.8141279394168        0
700                      20                       886.6018070562287        0
700                      21                       883.6452194538793        0
700                      22                       880.9050092665535        0
700                      23                       878.3593503580676        0
700                      24                       875.9907654674855        0
700                      25                       873.8099187499239        0
700                      26.000000000000004       871.7720765101792        0
700                      27                       869.8735872462503        0
700                      28                       868.1100717402842        0
700                      29                       866.4735677217269        0
700                      30                       864.9597415173778        0
700                      31                       863.5595634503919        0
700                      32                       862.2709830321623        0
700                      33                       861.0793436685           0
700                      34                       859.9725550240869        0
700                      35                       858.9497032741727        0
700                      36.00000000000001        858.0098154454856        0
700                      37                       857.1411010816603        0
700                      38                       856.3259933411114        0
700                      39                       855.566601568563         0
700                      40                       854.8656520276901        0
700                      41                       854.2176538584341        0
700                      42                       853.6187754206263        0
700                      43                       853.0662200069514        0
700                      44                       852.5591135370365        0
700                      45                       852.0928900795236        0
700                      46                       851.6632336961313        0
700                      47                       851.263087414939         0
700                      48                       850.8897441602671        0
700                      49                       850.5445098842041        0
700                      50                       850.2248394051151        0
