% Model:              Cav_Hex_Unif_flux_v5.1 - Base Case.mph
% Version:            COMSOL 5.5.0.359
% Date:               Oct 26 2021, 17:03
% Dimension:          3
% Nodes:              3498
% Expressions:        1
% Description:        Surface
% x                       y                        z                        Color
1.1999999999999997        1.1999999999999997       0                        376951.6778303012
0.9600778226534712        1.3999999999999995       0                        366119.3466158631
1.4                       1.4                      0                        357112.11583923217
1.4                       0.9600778226534701       0                        526030.0504209108
1                         1                        0                        453685.62169051985
0.666666666666667         1                        0                        473317.7977887112
0.5151345559223477        1.4000000000000001       0                        476917.2015984554
1                         0.6666666666666666       0                        553999.1635263648
1.4                       0.5151345559223482       0                        588404.0922516292
1.3999999999999997        -0.5151345559223481      0                        582378.3792725541
1.4000000000000001        -0.9600778226534704      0                        600080.6400955239
1                         -0.666666666666667       0                        617283.5110670914
1                         0.33333333333333315      0                        540621.000630577
1.4                       2.0816681711721685E-16   0                        497113.05629464576
1                         -1.97758476261356E-16    0                        392753.8488920531
1.0000000000000002        -0.3333333333333335      0                        506222.39334562485
0.3333333333333336        0.9999999999999998       0                        457448.2958627834
-1.1379786002407855E-15   1.4                      0                        499807.86807172024
1.97758476261356E-16      1                        0                        432029.23378125817
-0.33333333333333326      1                        0                        505709.54739572783
-0.515134555922349        1.4                      0                        472840.627489374
1.1999999999999997        -1.2000000000000002      0                        684464.8886918668
1.4                       -1.4                     0                        615026.4217231264
1                         -1                       0                        664971.1670178092
-0.6666666666666666       1                        0                        438435.6987641097
-0.9600778226534759       1.4                      0                        392728.69129261875
-1.2000000000000002       1.1999999999999997       0                        426550.5828079779
-1.4                      1.4                      0                        376951.6778303063
-1                        1                        0                        434451.6683388514
0.9600778226534754        -1.4                     0                        666638.8895875885
0.6666666666666665        -1                       0                        455803.36275078746
-1.4                      0.9600778226534766       0                        445971.2606174606
-1                        0.666666666666667        0                        442755.5991030924
0.515134555922349         -1.4                     0                        445540.1223125405
0.33333333333333326       -1                       0                        382490.608453806
-1.4                      0.5151345559223497       0                        524905.7726912474
-0.9999999999999998       0.3333333333333336       0                        562182.6555673309
-4.787836793695988E-16    -1.4                     0                        474778.1815328507
-1.97758476261356E-16     -1                       0                        458212.82370739523
-1.4                      4.787836793695988E-16    0                        509433.21179275133
-1                        1.97758476261356E-16     0                        510580.0035596688
-0.5151345559223497       -1.4                     0                        496940.3186855186
-0.3333333333333335       -1.0000000000000002      0                        512382.866184697
-1                        -0.33333333333333326     0                        501087.6124063448
-1.4                      -0.515134555922349       0                        466058.74233049975
-1.2000000000000002       -1.2000000000000002      0                        337272.5538481683
-0.9600778226534766       -1.4                     0                        392504.8060884664
-1.4                      -1.4                     0                        376951.67783030594
-1.4                      -0.9600778226534754      0                        424040.0856196375
-0.666666666666667        -1                       0                        490773.52440613456
-1                        -0.6666666666666666      0                        506098.6550643167
-1                        -1                       0                        436816.2041205209
-1                        0.666666666666667        40                       3.063483116859137E-25
-1                        0.7777232929106845       39.749399312416394       1.8380898701151303E-25
-1                        1                        40                       1.451609096290505E-24
-1                        0.4828804938528617       39.65678481233311        240.374636632213
-0.9999999999999998       0.3333333333333336       39.999999999999986       5.863692318680495E-38
-1                        1                        39.63963963963964        5.72878527747389E-41
-1                        0.24986554484889067      39.42081015842715        336.5244912850982
-1                        0.14808629584140776      39.69430853299759        6.522554660309483E-69
-1                        1.97758476261356E-16     40                       0
-1                        -0.16666666666666652     39.69518792538133        6.522554660253697E-69
-1                        -0.33333333333333326     40                       0
-1                        -0.4906061092173115      39.72280166046539        3.301812663764962E-63
-1                        -0.6666666666666666      40                       6.603620171435072E-63
-1                        -0.7688537160556336      39.764380145321965       0.11075820131020653
-1                        -0.321120479398195       39.417782432629615       5.545936446421677E-20
-1                        -0.006840049161436601    39.407320264261394       9.312385517963346E-25
-1                        -0.14621440123406915     39.08455706878605        1.5228515509310602E-30
-1                        0.7400259908157536       39.45087695025355        5.728562038490289E-41
-1                        1                        39.27927927927927        1.593120420703918E-30
-1                        0.1781428323001828       39.14941961213199        9.312385517963359E-25
-1                        0.4648318467222068       39.28233681878572        280.43707607091517
-1                        0.7147203114087692       39.09782183906719        1.5931204206382825E-30
-1                        0.4218623456850983       38.911471798944476       1.3335171691846577E-39
-1                        1                        38.918918918918926       1.5931204206486287E-30
-1                        -1                       40                       0
-1                        -1                       39.63963963963964        0.18459700218367756
-1                        -0.6869957931833737      39.45945945945946        0.07911300093586181
-1                        -0.45946073125543774     39.18722148065272        6.655123735706013E-20
-1                        -0.7121119128139057      39.08073583566687        1.5063293210135077E-44
-1                        -0.44203105557568645     38.901083279818145       6.395016977116065E-62
-1                        -0.216663062274645       38.74896233861521        7.72803753669064E-32
-1                        0.08584510325066619      38.74605188408969        5.520026812696136E-32
-1                        -0.1559554164679456      38.459289816086105       1.6978941662979795E-16
-1                        0.3987076527913356       38.55007781190825        1.543788541828778E-23
-1                        0.11589732562641819      38.347426416096745       9.547498275070353
-1                        1                        38.55855855855856        2.8734992663891193E-49
-1                        0.6869957931833752       38.73873873873874        1.9987883756142323E-42
-1                        0.6869957931833754       38.37837837837838        6.225966077129502E-32
-1                        0.686995793183379        38.01801801801802        6.22595040494587E-32
-1                        1                        38.19819819819819        2.4420580442467934E-49
-1                        -1                       39.27927927927927        1.5062188050957414E-44
-1                        -1                       38.918918918918926       6.761443386922324E-9
-1                        -0.712262750735738       38.73519896007728        1.105159177662879E-48
-1                        -0.43243774284146        38.5735187891228         3.0767107764316767E-10
-1                        -0.7062018000296223      38.384776778751004       2.2226788695020534E-5
-1                        -0.40571903944906706     38.229760158347574       2.2226788695190324E-5
-1                        -0.14885128959549454     38.0998568100521         9.547498275070353
-1                        -0.4145834225480001      37.87506954717309        8.75687877765394E-44
-1                        0.11511329292526207      37.978383373725855       9.547498275070353
-1                        0.3950018851519923       38.1810915959506         1.3609534350857203E-18
-1                        0.3739915863667549       37.83783783783784        1.3609379972003081E-18
-1                        -0.15003107959160822     37.740912612825255       1224.1860312290466
-1                        0.1122586850780487       37.60915037763744        3.393167729088699E-24
-1                        1                        37.83783783783784        5.846560112255741E-48
-1                        0.6869957931833761       37.65765765765766        9.74429179902948E-49
-1                        0.37399158636675184      37.47747747747748        3.3985898876274494E-24
-1                        0.6869957931833743       37.2972972972973         5.5389744225668076E-18
-1                        1                        37.47747747747748        9.744266853706431E-49
-1                        -1                       38.55855855855856        6.8155349340177045E-9
-1                        -1                       38.19819819819819        7.08988726088595E-23
-1                        -0.6869957931833786      38.01801801801802        0.0026634153040406955
-1                        -0.6869957931833759      37.65765765765766        0.002641188823016583
-1                        -0.4143049306080899      37.51533514133837        1224.1860312290466
-1                        -0.15007339674278364     37.38117266399475        1224.1860312290466
-1                        -0.4143199287820727      37.155127374606          4.509906453186588E-43
-1                        -0.15005507018362452     37.020920956799365       1.692660412591024E-23
-1                        0.11205763191626672      37.2490688071798         0.3945410102516355
-1                        0.37399158636674645      37.11711711711711        0.3945410102516355
-1                        0.11212305015776303      36.888695665622166       49.632725352980344
-1                        1                        37.11711711711711        5.5389744225668076E-18
-1                        0.6869957931833737       36.93693693693693        5.5389744225668076E-18
-1                        1                        36.756756756756744       2.3232214421407023E-33
-1                        -1                       37.83783783783784        0.005282377646033166
-1                        -1                       37.47747747747748        9.292857030588274E-35
-1                        -0.6869957931833743      37.2972972972973         9.292857030591629E-35
-1                        -0.6869957931833736      36.93693693693693        4.266412785157773E-36
-1                        -0.4142880145470309      36.7947599869368         2.0982932394335577E-21
-1                        -0.1499065378942046      36.66044148968889        1267.644425335887
-1                        -0.414166210901698       36.4342885854779         1218.4213670407482
-1                        -0.14931026626291954     36.29952222163968        1218.4062409931585
-1                        0.11236426314700632      36.52811594583952        49.23818434272871
-1                        0.37399158636675         36.756756756756744       2.711792054870184E-26
-1                        0.6869957931833766       36.576576576576564       1.2370651279197533E-39
-1                        0.37399158636675206      36.39639639639638        1.815011138786726E-28
-1                        0.11303766229265988      36.167121792436866       5.4508080129770104E-27
-1                        1                        36.39639639639638        2.323214305226503E-33
-1                        0.37399158636675156      36.036036036036016       1.8155919423511378E-28
-1                        0.6869957931833759       36.21621621621621        1.815011138786726E-28
-1                        0.6869957931833759       35.85585585585584        5.808035644117769E-32
-1                        1                        36.03603603603602        1.046700551385719E-69
-1                        -1                       37.11711711711711        1.9488533707412334E-48
-1                        -0.6869957931833766      36.576576576576564       8.654647535273836E-14
-1                        -1                       36.756756756756744       1.9184027317087093E-41
-1                        -0.6869957931833759      36.21621621621621        0.01512604759226909
-1                        -0.4138309534776284      36.07361264380893        0.015126047592182543
-1                        -0.14664199612824946     35.936645728377414       5.450876206731163E-27
-1                        -0.4117690316487171      35.71130757915292        6.819375415289488E-32
-1                        -0.14553720790562033     35.57524340881201        2.0516657429884558E-7
-1                        0.11370547241176587      35.80613177548281        8.526815051343934E-23
-1                        0.3739915863667509       35.67567567567566        9.944247428527805E-23
-1                        0.11366692804868306      35.445807805854635       2.0516657429884565E-7
-1                        1                        35.67567567567566        4.872445243392357E-48
-1                        0.6869957931833743       35.49549549549548        1.4179774521771326E-23
-1                        0.6869957931833808       35.13513513513512        0.06602972057541616
-1                        1                        35.315315315315296       9.744267053587961E-48
-1                        -1                       36.39639639639638        5.365881471861705E-13
-1                        -0.6869957931833759      35.85585585585584        2.479218308229037E-12
-1                        -1                       36.03603603603602        1.7309295070521633E-14
-1                        -0.6869957931833743      35.49549549549548        1.9015539199393713E-28
-1                        -0.415225050910844       35.35420697200976        1.6299323543288762E-16
-1                        -0.14967482738194834     35.218785689537974       2.052311371769247E-7
-1                        -0.41406878816732756     34.99275602347282        1.8931417499172936
-1                        0.11245873142734486      35.08658703053125        6.466624930136097E-11
-1                        0.37399158636675445      35.315315315315296       0.06602972057541616
-1                        0.3739915863667531       34.95495495495495        0.06602972057551969
-1                        -0.1493435767839255      34.85811289654737        2.4619210560006374E-5
-1                        0.1128160849041997       34.72588961262116        1.3060401406736596E-11
-0.9999999999999998       0.9999999999999998       34.95495495495495        1.2492651038559887E-52
-1                        0.6869957931833721       34.77477477477477        3.5449436304427636E-22
-1                        0.37399158636674557      34.594594594594575       1.2956867191253033E-11
-1                        0.6869957931833737       34.414414414414395       2.1164670089744668E-5
-1                        1                        34.594594594594575       3.5449527054984577E-22
-1                        1                        34.23423423423421        4.3273237677722236E-13
-1                        -1                       35.67567567567566        5.67409074936216E-25
-1                        -0.6869957931833806      35.13513513513512        1.8931417499172933
-1                        -1                       35.315315315315296       2.9098165648458516E-31
-1                        -0.6869957931833719      34.77477477477477        1.8931417499172933
-1                        -0.146543153917297       34.49511116037499        2.4619145997291286E-5
-1                        -0.414286596067266       34.632601101689445       2.947039528373597E-5
-1                        -0.6869957931833746      34.414414414414395       4.8512514501067815E-6
-1                        -0.4143264640935598      34.27227834529887        4.851249286444676E-6
-1                        0.37399158636675356      34.23423423423421        2.1164683087353167E-5
-1                        0.11333827561479315      34.36503671891302        2.5954475692417575E-11
-1                        -0.1465635714649225      34.134770058086886       8.191910257982097E-32
-1                        0.11293020242646934      34.00506125581913        1.299760850116454E-11
-1                        0.6869957931833806       34.054054054054035       2.1164670089744668E-5
-1                        1                        33.87387387387386        2.835954904354302E-23
-1                        0.3739915863667531       33.87387387387386        4.3526255801031095E-29
-1                        0.6869957931833719       33.693693693693675       2.836898710147207E-24
-0.9999999999999998       0.9999999999999998       33.51351351351349        1.0564755292066592E-4
-0.9999999999999998       -0.9999999999999998      34.95495495495495        6.923718056568358E-16
-1                        -1                       34.594594594594575       2.163661928126944E-12
-1                        -1                       34.23423423423421        2.1636621496859437E-12
-1                        -0.6869957931833803      34.054054054054035       2.2155900053955517E-19
-1                        -0.1495129539534834      33.77719157391794        1.0474618825847173E-20
-1                        -0.4143277587200913      33.91191920608295        1.0474618825847173E-20
-1                        -0.6869957931833719      33.693693693693675       1.2318385876854172E-25
-1                        -0.4142914158390967      33.55152456689758        1.0474624033924405E-20
-1                        0.37399158636675         33.51351351351349        9.438760705564764E-28
-1                        0.11286136042421724      33.644765827685          3.45491910035946E-33
-1                        -0.14656839075899208     33.41405388298511        6.5811634712245985E-18
-1                        0.11282774954349217      33.2844371693235         6.960916256860509E-32
-1                        0.37399158636675445      33.153153153153134       8.350483577904606E-32
-1                        0.6869957931833782       33.333333333333314       1.0564755292066592E-4
-1                        1                        33.153153153153134       1.0564755292066592E-4
-1                        0.6869957931833759       32.972972972972954       6.125665497423139E-25
-1                        1                        32.792792792792774       1.6335100250939405E-25
-1                        -1                       33.87387387387386        4.43117999181361E-20
-0.9999999999999998       -0.9999999999999998      33.51351351351349        1.406634213363295E-25
-1                        -0.6869957931833782      33.333333333333314       1.6616923279565514E-16
-1                        -0.14964574710866435     33.05659610454802        5.017144564591306E-6
-1                        -0.41406526371539515     33.19095089842948        6.5811634712245985E-18
-1                        -0.6869957931833759      32.972972972972954       5158.571919954199
-1                        -0.4127068779894616      32.82930930008355        5.017156990993561E-6
-1                        -0.14920618425683196     32.69582114573319        5.217610103095374E-6
-1                        0.37399158636675134      32.792792792792774       8.282466883818659E-16
-1                        0.11233610197088773      32.924540534056284       2.1504176104109333E-14
-1                        0.11233609636000152      32.56418017898821        8.348755298200498E-16
-1                        0.373991586366754        32.432432432432414       4.3273237888115246E-13
-1                        1                        32.432432432432414       3.546078026948729E-22
-1                        0.6869957931833752       32.612612612612594       4.327323767630645E-13
-1                        0.686995793183379        32.252252252252234       4.3273259832201874E-13
-0.9999999999999998       0.9999999999999998       32.07207207207206        1.1343965061781237E-25
-1                        -1                       33.153153153153134       10317.143839908398
-1                        -1                       32.792792792792774       10317.143839908398
-1                        -0.6869957931833759      32.612612612612594       4.2259145433096214E-6
-1                        -0.14990993416455645     32.33612456672542        2.007859734414515E-7
-1                        -0.4140653165292433      32.470230227523594       2.0047796498582706E-7
-1                        -0.686995793183379       32.252252252252234       5920.920210238015
-1                        -0.41429172396624075     32.110083416086106       5920.904358879495
-1                        -0.15007124974672004     31.975916360239825       3.204555324972569E-10
-1                        0.3739915863667565       32.07207207207206        1.6157611068545713E-9
-1                        0.11206086249755431      32.2040794209432         2.5418813223292675E-21
-1                        0.11202708980309106      31.843750915201323       1.6286793692843559E-9
-1                        0.3739915863667531       31.711711711711708       1.6157611066308942E-9
-1                        0.6869957931833772       31.891891891891877       2.215590903426255E-19
-1                        1                        31.7117117117117         1.3612728985265393E-25
-1                        0.6869957931833754       31.53153153153152        7.092156054081785E-23
-1                        1                        31.351351351351344       1.3847443148685884E-16
-1                        -1                       32.432432432432414       0.005290829450266953
-0.9999999999999998       -0.9999999999999998      32.07207207207206        0.03169426587620051
-1                        -0.6869957931833772      31.891891891891884       5920.917564992326
-1                        -0.41432945872394944     31.74975864738727        1.6824634940378096E-23
-1                        -0.686995793183375       31.53153153153152        1.6903608467306E-7
-1                        -0.1501054730388484      31.615588279504497       1.2918262928611137E-11
-1                        -0.4143357478837011      31.38940421900207        0.0030320078781090384
-1                        0.11201999354403869      31.48339724807727        1.2918262918112523E-11
-1                        -0.15011239982167351     31.255234452529397       5.046055318186622E-6
-1                        0.37399158636675206      31.351351351351344       4.337165752770795E-28
-1                        0.11201856625330309      31.123038233946538       5.046055318186347E-6
-1                        0.6869957931833754       31.171171171171164       3.3807650359360605E-8
-1                        0.37399158636675156      30.99099099099098        3.380721693465628E-8
-1                        1                        30.99099099099098        4.337016972870137E-13
-1                        0.6869957931833763       30.8108108108108         3.380765035940484E-8
-1                        1                        30.63063063063062        1.0399424478369272E-13
-1                        -1                       31.7117117117117         1.6903608550390792E-7
-1                        -1                       31.351351351351344       4.3273237676303967E-13
-1                        -0.6869957931833752      31.171171171171164       0.0030320078785417786
-1                        -0.41433679608301377     31.029044847309912       0.0030320078781092036
-1                        -0.6869957931833761      30.8108108108108         1.664308423735512E-16
-1                        -0.15011375810356054     30.894875373309077       5.046055318186347E-6
-1                        -0.41433697078397647     30.668684651728597       2.5632795776402326E-12
-1                        0.11201828760777222      30.762678136406393       6.462827689949495E-11
-1                        -0.15011401845378347     30.534515258512688       2.563120613166325E-12
-1                        -0.41433699990099576     30.30832431883159        5.046940333455346E-12
-1                        0.37399158636675045      30.63063063063062        6.463173880282086E-11
-1                        0.11201823437284752      30.402317826257555       6.463241060023229E-11
-1                        0.6869957931833746       30.450450450450436       2.077115408462568E-14
-1                        0.3739915863667531       30.270270270270252       0.0026411888230201005
-1                        0.11201822436801856      30.041957475333813       49.277550948757096
-1                        1                        30.270270270270256       1.7309295070521402E-14
-1                        0.6869957931833786       30.09009009009008        0.002641188823103185
-1                        0.6869957931833743       29.729729729729723       1.3522980244038689E-8
-1                        1                        29.9099099099099         4.292705531983729E-15
-1                        -1                       30.99099099099098        4.3273348455792405E-13
-1                        -1                       30.63063063063062        8.862359076165109E-21
-1                        -0.6869957931833746      30.450450450450436       9.217504557631394E-21
-1                        -0.6869957931833786      30.09009009009008        2.4838197206435104E-12
-1                        -0.15011406750717904     30.1741549444198         4.1337007373281E-15
-1                        -0.41433700475386614     29.947963963048498       2.4838197202890425E-12
-1                        -0.1501140766263671      29.81379459266072        49.35892495039923
-1                        -0.41433700556268377     29.58760360345101        0.07822023838468573
-1                        0.3739915863667531       29.909909909909903       0.002641188825688315
-1                        0.11201822251182203      29.681597116724227       49.280704712017126
-1                        0.37399158636675267      29.549549549549535       49.30744673259246
-1                        0.11201822217100155      29.321236756685334       51.27854874114391
-1                        1                        29.54954954954954        8.789876696565007E-7
-1                        0.6869957931833788       29.369369369369362       8.587141327412922E-7
-1                        0.3739915863667538       29.189189189189186       49.30744671908039
-1                        0.6869957931833746       29.009009009009006       1.0819001790881521E-11
-1                        1                        29.189189189189182       8.451804283504E-7
-1                        -1                       30.270270270270256       9.219689394055669E-21
-1                        -1                       29.9099099099099         2.112951058413288E-5
-1                        -0.6869957931833741      29.729729729729723       8.138980437390392E-23
-1                        -0.6869957931833786      29.369369369369366       4.225902116827813E-6
-1                        -0.4143370056974876      29.227243243217803       0.07892997295344868
-1                        -0.15011407830350332     29.45343423388224        0.08450381239599553
-1                        -0.1501140786092383      29.093073873810255       1.9742318328364357
-1                        -0.41433700571995485     28.866882882878635       0.07592531458352968
-1                        0.3739915863667507       28.82882882882882        41.26857535964437
-1                        0.1120182221089554       28.960876396383494       1.971102022085158
-1                        -0.15011407866456294     28.732713513502077       1.2515244533699404E-4
-1                        0.11201822209774015      28.60051603603371        1231.938763266726
-0.9999999999999998       0.9999999999999998       28.82882882882882        3.544989005726216E-21