% Model:              Cav_Hex_Unif_flux_v5.1 - Base Case.mph
% Version:            COMSOL 5.5.0.359
% Date:               Oct 26 2021, 17:02
% Dimension:          3
% Nodes:              2626
% Expressions:        1
% Description:        Surface
% x                       y                        z                        Color
1.214044771851099         1.2140447718510978       0                        406165.7354915496
1.0280895437021977        1.4000000000000001       0                        311371.91291511187
1.4                       1.4                      0                        403841.6730093938
0.871187628993956         1.1999999999999997       0                        388101.45157911844
1.4                       1.0280895437021957       0                        661873.0455795309
1.1999999999999997        0.8711876289939549       0                        528985.1969786872
1                         1                        0                        452323.61787624966
-1.2140447718510972       1.2140447718510983       0                        415078.9693101057
-1.4                      1.4                      0                        429081.777572478
-1.0280895437021942       1.4                      0                        315832.5245339311
0.6600954651311284        1.4                      0                        452500.842153181
1.2140447718510974        -1.2140447718510976      0                        692152.0981787451
1.4000000000000001        -1.0280895437021957      0                        568018.5749851059
1.4                       -1.4                     0                        731963.0323295193
0.7142857142857141        0.9999999999999998       0                        420709.83616605186
1.3999999999999997        0.6600954651311277       0                        582334.995043645
1                         0.7142857142857144       0                        482880.55973792187
-1.4                      1.0280895437021969       0                        644338.7064642832
-1.1999999999999997       0.8711876289939553       0                        440260.0689591109
-0.8711876289939542       1.1999999999999997       0                        421795.47126431216
-1                        1                        0                        394101.3796153686
-0.6600954651311274       1.4                      0                        410094.6198259237
-0.047037547440898386     1.2000000000000002       0                        480675.69202650856
-0.2369322377389392       1.4000000000000004       0                        581310.9806666718
0.2369322377389412        1.4                      0                        456650.9272602336
0.42857142857142816       0.9999999999999998       0                        497457.3543735119
1.2                       -0.8711876289939549      0                        597268.9568170027
1.1999999999999997        -0.04703754744089883     0                        361405.4074609897
1.4                       0.23693223773893965      0                        520860.9771618729
1.4                       -0.2369322377389407      0                        439989.4205221223
1.4                       -0.6600954651311295      0                        629897.5392957204
1.0280895437021944        -1.4                     0                        602687.183115592
0.8711876289939546        -1.2                     0                        568409.8091339815
1                         -1                       0                        684159.238599116
1                         0.4285714285714287       0                        630090.2212012489
-1.4                      0.6600954651311284       0                        529811.3338509547
-0.9999999999999998       0.7142857142857141       0                        324513.85803326586
-0.7142857142857143       1.0000000000000002       0                        431968.02377043385
0.1428571428571423        1                        0                        424372.01268094685
-0.42857142857142894      1                        0                        538187.3831475027
-0.14285714285714327      1.0000000000000002       0                        590585.4172228647
-1.214044771851097        -1.214044771851098       0                        406873.33823140204
-1.4                      -1.4                     0                        353361.4638832159
-1.4                      -1.0280895437021957      0                        435742.48738123087
-1.2                      -0.8711876289939551      0                        428625.279490281
0.9999999999999998        0.142857142857143        0                        522004.12582599465
0.9999999999999998        -0.14285714285714274     0                        407300.28773990675
0.9999999999999998        -0.7142857142857141      0                        731563.4540253967
0.9999999999999998        -0.42857142857142855     0                        596235.2883270119
0.6600954651311288        -1.3999999999999997      0                        430134.2925725858
0.7142857142857144        -1                       0                        420709.83616605325
-1.0280895437021937       -1.4                     0                        380801.6666362404
-0.871187628993954        -1.1999999999999997      0                        430874.84319173463
-1                        -1                       0                        437049.8570860033
-0.9999999999999998       0.42857142857142855      0                        504592.72358553344
-1.4                      0.23693223773894093      0                        518605.3360275585
-1.4000000000000001       -0.6600954651311279      0                        398431.1240633573
-1.2                      -0.04703754744089883     0                        453272.8895384618
-1.4                      -0.2369322377389401      0                        550958.6640703791
-1                        -0.7142857142857144      0                        436521.4371617404
0.4285714285714287        -1                       0                        503811.903648732
0.23693223773894048       -1.4                     0                        476240.7653349082
-0.6600954651311284       -1.4                     0                        520560.9328395092
-0.7142857142857141       -0.9999999999999998      0                        422861.1969878189
0.04703754744089907       -1.2                     0                        437999.12874821573
-0.23693223773893982      -1.4                     0                        465147.1732616958
-0.9999999999999998       0.14285714285714274      0                        459112.4930513683
-0.9999999999999998       -0.142857142857143       0                        509125.3596748835
-1                        -0.4285714285714287      0                        518082.6420727743
0.142857142857143         -0.9999999999999998      0                        448030.31651389756
-0.42857142857142855      -0.9999999999999998      0                        484227.7091985376
-0.14285714285714274      -0.9999999999999998      0                        371362.99731849384
-0.9999999999999998       -0.142857142857143       19.999999999999993       0
-1                        5.329070518200751E-15    19.751277504033105       3.205253322233663E-14
-0.9999999999999998       0.14285714285714274      20                       0
-1                        0.8082455822872272       19.801551583225443       7.8884232272704955E-59
-1                        1                        20                       9.860529075144828E-59
-0.9999999999999998       0.7142857142857141       19.999999999999996       2.472834638560321E-6
-1                        1                        19.71428571428571        4.45080057012985E-33
-0.9999999999999998       0.42857142857142855      19.999999999999996       2.472834638560321E-6
-1                        0.5517504104678994       19.730139338463168       1.070783012790673E-6
-1                        0.26455682970454353      19.757057632644205       1.282952897562451E-8
-1                        0.7751918152222368       19.563332853716776       6.460271281402437E-22
-1                        0.3418171705818951       19.542816779717253       3.077521428525439E-8
-1                        0.5398773945451834       19.419734772040616       9.133662333083889E-4
-1                        -0.2857142857142931      19.751277504033105       6.893510515112564E-22
-1                        -0.4285714285714287      20                       6.698407181554676E-42
-1                        -0.7980811509787462      19.8113653775243         7.932257972331915E-8
-1                        -0.7142857142857144      20                       2.682800413115763E-24
-1                        -1                       20                       9.915322465414894E-8
-1                        -0.561104324017667       19.775667140995065       8157.484647461938
-1                        -0.42801602739336686     19.52573173696225        8157.484647461938
-1                        0.11716342907985133      19.527604325606692       1.2816514981289513E-8
-1                        -0.1431329968578985      19.504637589970272       2.8700711885912713
-1                        0.2669082055621664       19.27286741119044        1.0986192756723284E-8
-1                        -0.028271483389946506    19.28210399548927        2.8700711885912393
-1                        0.07649461735536511      19.0855190202246         0.9803849986062682
-1                        -0.30958748848146117     19.26232162812598        2.4600610187924907
-1                        -1                       19.71428571428571        6.64948937869859E-8
-1                        1                        19.428571428571434       8.791632461178986E-18
-1                        0.7512775040331117       19.285714285714292       5.242538396425512
-1                        1                        19.142857142857153       5.240221298443447
-1                        0.7512775040331077       19.000000000000007       5.241625030192203
-1                        0.5026881904995308       19.134732388168544       2.62242774720453
-1                        0.27276908863990923      18.99031487716019        7.419540869981259E-13
-1                        0.5025550080662169       18.857142857142865       1.3736925776858249E-13
-1                        0.25383251209932856      18.714285714285715       1.6768708155024068E-4
-1                        -0.7281401578196929      19.553409496382404       6994.867641191923
-1                        -1                       19.428571428571434       0.0016114099261394404
-1                        -0.550563612401171       19.33577625686597        3.8321538689495234
-1                        -0.7615687799089939      19.266042106786806       8996.2898795009
-1                        0.03948807914147068      18.856365596615664       0.8169874988385565
-1                        -0.5457420553731637      19.116902271289558       34.11889422983004
-1                        -0.12996261390592206     19.038779840925248       0.8169874988385565
-1                        -0.3482165551119305      19.01029776766823        22.00292544998476
-1                        -0.7512775040331077      19.000000000000007       9414.995886176714
-1                        -0.5187359052358242      18.845279006638474       8876.889840021659
-1                        -0.23711966862213463     18.769733569719552       47.100136714137875
-1                        -1                       19.142857142857153       18012.392330970855
-0.9999999999999998       0.9999999999999998       18.857142857142865       9.899131681028379E-52
-1                        0.7512775040331094       18.714285714285722       3.3537416447407606E-5
-1                        1                        18.57142857142858        0.2096759267703621
-1                        0.7512775040331112       18.428571428571438       0.10483796338518105
-1                        0.5025550080662209       18.57142857142858        4.2941634198398084E-10
-1                        0.5025550080662189       18.285714285714302       4.2927892877131334E-10
-1                        0.005110016132441553     18.571428571428577       0.5241898169259133
-1                        0.253832512099331        18.428571428571438       0.5241898173551922
-1                        0.2538325120993261       18.14285714285716        6.975782599081523E-6
-1                        0.005110016132438444     18.285714285714306       0.524022129844363
-1                        -0.25395438985796215     18.438018133707434       54.950159499750576
-0.9999999999999998       -0.9999999999999998      18.857142857142865       812.2343012587279
-1                        -0.7512775040331092      18.714285714285722       9235.892347600973
-1                        -0.25383251209932545     18.142857142857157       8.117865023442107E-4
-1                        -0.5025550080662207      18.57142857142858        8897.82590943058
-1                        -0.5025550080662187      18.285714285714302       6.707486697966622E-6
-1                        -0.751277504033111       18.428571428571438       0.20960912023706876
-1                        -1                       18.57142857142858        1.6097959828818482E-6
-1                        -1                       18.285714285714302       0.20960938853639868
-1                        1                        18.285714285714302       0.2096088519446105
-1                        0.7512775040331077       18.142857142857157       2.6830276471174586E-7
-1                        1                        18.000000000000014       5.366055294234917E-7
-1                        0.5025550080662164       18.000000000000014       8.317279245988612E-6
-1                        0.7512775040331084       17.85714285714287        1.609796120251422E-6
-1                        0.5025550080662178       17.714285714285722       2.621118113207672
-1                        1                        17.714285714285722       1.3736925720591774E-13
-1                        0.7512775040331097       17.57142857142858        2.1465320130998015E-9
-1                        1                        17.428571428571438       2.704465770333486E-7
-1                        0.5025550080662193       17.428571428571438       2.6420776591370436
-1                        0.005110016132433337     18.000000000000014       8.117865023496615E-4
-1                        0.25383251209932545      17.85714285714287        6.975782599083278E-6
-1                        0.2538325120993279       17.571428571428577       15.721670017905657
-1                        0.0051100161324355575    17.71428571428572        1572.9370162608302
-1                        0.25383251209932833      17.285714285714295       13.12235256679616
-1                        0.005110016132438223     17.428571428571434       3158.974585767782
-1                        0.005110016132438        17.142857142857153       1635.854496911277
-1                        -0.5025550080662162      18.000000000000014       6.771875101375606E-6
-1                        -0.2538325120993252      17.85714285714287        8.117973201731805E-4
-1                        -0.2538325120993284      17.571428571428577       1572.9378546963237
-1                        -1                       18.000000000000014       1.0731973220990103E-8
-1                        -0.7512775040331074      18.142857142857157       0.10481118711199695
-1                        -0.5025550080662176      17.71428571428572        8.384484750015663E-4
-1                        -0.7512775040331082      17.85714285714287        6.763378812764726E-6
-1                        -0.7512775040331094      17.57142857142858        6.709736118924836E-6
-1                        -0.5025550080662193      17.428571428571438       0.005030614613533238
-1                        -1                       17.714285714285722       1.3414973392478273E-5
-1                        0.7512775040331094       17.285714285714295       2.7044644515885035E-7
-1                        1                        17.142857142857153       2.708766801776602E-7
-1                        0.5025550080662189       17.14285714285715        0.02179937426483031
-1                        0.7512775040331097       17.00000000000001        6.439200965315561E-8
-1                        0.5025550080662169       16.85714285714287        0.020960949589101982
-1                        0.25383251209932745      17.00000000000001        0.02179932060495894
-1                        0.2538325120993239       16.714285714285722       0.020960898157997145
-1                        0.005110016132433337     16.85714285714287        62.921668440092475
-1                        -0.2538325120993283      17.285714285714295       1638.4439746684254
-1                        -0.5025550080662184      17.142857142857153       65.50699194929904
-1                        -0.25383251209932695     17.000000000000014       128.4244682101988
-1                        -1                       17.428571428571438       6.707483262227443E-5
-1                        -0.7512775040331092      17.285714285714295       3.3539570261134096E-5
-1                        -0.7512775040331094      17.00000000000001        4.126616444628257E-12
-1                        -0.5025550080662167      16.85714285714287        3.354170910065344E-5
-1                        -0.25383251209932384     16.714285714285722       0.5075276348784484
-1                        -0.5025550080662167      16.571428571428577       2.6829947334432925E-7
-1                        -1                       17.142857142857153       2.0122449786027358E-4
-1                        1                        16.85714285714287        5.906886312999901E-7
-1                        0.7512775040331072       16.714285714285722       1.6930762673349087E-4
-1                        0.5025550080662169       16.571428571428577       0.004359918381190126
-1                        0.7512775040331097       16.42857142857143        1.690308455118495E-4
-1                        0.5025550080662196       16.285714285714292       1637.5733480506206
-0.9999999999999998       0.9999999999999998       16.571428571428577       3.2196263652234938E-6
-1                        1                        16.285714285714292       0.008387144391977366
-1                        0.2538325120993279       16.42857142857143        1637.6781524314977
-1                        0.25383251209932833      16.14285714285715        1638.1981580554575
-1                        0.005110016132434003     16.571428571428573       0.5033398580983285
-1                        0.00511001613243911      16.285714285714292       0.7294958684122411
-1                        -1                       16.85714285714287        3.4399459912478324E-12
-1                        -0.7512775040331068      16.714285714285722       2.6829934146983947E-7
-1                        -0.25383251209932783     16.42857142857143        1638.173163577844
-1                        -0.7512775040331094      16.42857142857143        1703.0762821265325
-1                        -0.5025550080662196      16.285714285714292       9890.938661761558
-1                        -0.2538325120993283      16.14285714285715        9825.51644099867
-1                        -0.7512775040331094      16.14285714285715        78.65379336375217
-1                        0.0051100161324355575    16.000000000000007       13.107519914875587
-1                        -1                       16.285714285714292       3301.356522123137
-0.9999999999999998       -0.9999999999999998      16.571428571428577       3275.1383115271383
-1                        -1                       16.000000000000007       26.251748013169205
-1                        0.7512775040331094       16.14285714285715        0.00419416461819148
-1                        1                        16.000000000000007       0.008388217587868537
-1                        0.5025550080662176       16.000000000000007       0.10933873831399389
-1                        0.7512775040331084       15.857142857142865       0.1089974079057569
-1                        1                        15.714285714285719       5.58956881351511E-7
-1                        0.7512775040331103       15.571428571428578       398.2610111490539
-1                        0.5025550080662187       15.714285714285719       395.74587259095773
-1                        0.25383251209932656      15.857142857142861       3.426719907836996E-4
-1                        0.005110016132437556     15.714285714285715       15.101034381929296
-1                        0.2538325120993292       15.571428571428578       8.389833428374924E-4
-1                        -0.25383251209932567     15.857142857142861       12.584334838245518
-1                        -0.5025550080662176      16.000000000000007       8188.391600360587
-1                        -0.7512775040331084      15.857142857142865       0.5459891508357678
-1                        -0.5025550080662181      15.714285714285715       0.6288265734143251
-1                        -0.253832512099329       15.571428571428573       17.82514266668284
-1                        -0.7512775040331101      15.571428571428577       327.5155429024461
-1                        -1                       15.714285714285719       0.0020149279732812075
-1                        1                        15.428571428571436       4.38221689393143E-8
-1                        0.5025550080662193       15.428571428571436       398.26520304708123
-1                        0.7512775040331088       15.285714285714294       2.628495025295486
-1                        1                        15.142857142857151       2.2322508691783428E-8
-1                        0.005110016132437778     15.428571428571436       15.142195331442935
-1                        -0.2538325120993279      15.285714285714292       15.223941637790071
-1                        0.7512775040331097       15.000000000000009       0.6289942540567324
-1                        1                        14.857142857142865       1.2576531330903802
-1                        0.25383251209932745      15.285714285714292       330.1550046414204
-1                        0.5025550080662187       15.142857142857146       8187.850138692847
-1                        0.005110016132437112     15.142857142857146       330.175139587613
-1                        0.7512775040331101       14.714285714285722       8204.195269279711
-1                        -1                       15.428571428571436       0.0017600436079622597
-1                        -0.5025550080662196      15.428571428571434       330.2389139262446
-1                        -0.5025550080662187      15.142857142857146       2.7251163533560194
-1                        -0.7512775040331088      15.285714285714294       330.24381708525374
-1                        -0.7512775040331097      15.000000000000009       2.7291072522293267
-1                        -1                       15.142857142857151       0.008397769044033944
-1                        -1                       14.857142857142865       1.030269429072743E-10
-1                        1                        14.57142857142858        16401.89266414908
-1                        1                        14.285714285714292       33406.41245768831
-1                        0.7512775040331084       14.428571428571438       16389.31785174774
-1                        0.7512775040331086       14.142857142857148       8515.36136358568
-1                        -0.2538325120993295      15.000000000000005       0.5240625018277829
-1                        -0.5025550080662196      14.857142857142865       1.04808612554551
-1                        0.5025550080662196       14.857142857142865       8255.968997801267
-1                        0.2538325120993292       15.000000000000005       8583.483393766997
-1                        0.005110016132439777     14.857142857142865       13.101425386400761
-1                        0.5025550080662187       14.571428571428582       8191.012758637983
-1                        0.5025550080662167       14.285714285714292       0.5475734455107294
-1                        0.2538325120993292       14.714285714285724       78.60439939305196
-1                        0.2538325120993261       14.42857142857144        0.02183420037305117
-1                        0.25383251209932484      14.14285714285715        13.649929984642057
-1                        0.005110016132437112     14.571428571428582       76.01887282966874
-1                        -0.25383251209932917     14.714285714285724       328.0378614462847
-1                        -1                       14.57142857142858        3.3537521397574835E-5
-1                        -0.7512775040331101      14.714285714285722       0.5248946392876741
-1                        -0.5025550080662187      14.571428571428582       328.0386938644497
-1                        -0.7512775040331084      14.428571428571438       327.5147369441301
-1                        -0.5025550080662176      14.285714285714292       8266.44913210236
-1                        0.502555008066216        14.000000000000005       0.7547944329744722
-1                        0.25383251209932484      13.857142857142858       8202.124508528343
-1                        -1                       14.285714285714292       655.0276757418462
-1                        1                        14.000000000000007       17030.721232207517
-1                        0.7512775040331074       13.85714285714286        0.6499900178366649
-1                        0.5025550080662187       13.714285714285715       9826.798386541692
-1                        0.7512775040331108       13.571428571428575       1638.6214271351216
-0.9999999999999998       0.9999999999999998       13.714285714285715       1.0483797456777828
-0.9999999999999998       0.9999999999999998       13.428571428571434       3.2865664847123886E-6
-1                        0.751277504033109        13.285714285714292       8187.850153513416
-1                        0.00511001613243356      14.285714285714295       62.92234625036471
-1                        0.005110016132432006     14.000000000000004       7878.334843602093
-1                        0.005110016132437112     13.71428571428571        7877.792066610877
-1                        -0.2538325120993234      13.857142857142861       9502.777720344684
-1                        -0.25383251209932634     14.42857142857144        390.4361441340506
-1                        -0.2538325120993268      14.14285714285715        8187.849805539171
-1                        -0.7512775040331094      14.142857142857148       406.11719759462
-1                        -1                       14.000000000000007       2.682993304857552E-5
-1                        -0.5025550080662167      14.000000000000007       9904.018455563686
-1                        -0.7512775040331066      13.857142857142861       0.6290348097707309
-1                        -0.5025550080662169      13.714285714285715       1637.674330185004
-1                        -0.2538325120993292      13.571428571428573       13.10714709339945
-1                        -0.7512775040331108      13.571428571428575       66.65561658012057
-1                        -0.5025550080662196      13.428571428571434       1.676999772320889E-4
-1                        0.5025550080662196       13.428571428571434       1638.2231421536744
-1                        0.25383251209933033      13.571428571428573       8253.977378590864
-1                        0.005110016132439554     13.428571428571434       78.61028478034332
-1                        0.2538325120993272       13.285714285714292       1703.617072975728
-1                        0.005110016132434003     13.142857142857148       1637.5693240411058
-0.9999999999999998       -0.9999999999999998      13.714285714285715       1.0480443679013671
-0.9999999999999998       -0.9999999999999998      13.428571428571434       132.05391531542344
-1                        1                        13.142857142857148       16375.691557656874
-1                        0.5025550080662171       13.142857142857148       2.6456461560870177
-1                        0.7512775040331082       13.000000000000005       9828.144216292563
-1                        0.5025550080662189       12.85714285714286        1640.298297948413
-1                        1                        12.857142857142861       26.209491383068436
-1                        -0.25383251209932706     13.285714285714292       2.809792413362122E-7
-1                        -0.7512775040331088      13.285714285714292       66.02695765730319
-1                        -0.5025550080662169      13.142857142857148       0.004192189917810474
-1                        -0.7512775040331082      13.000000000000005       0.10497243546307172
-1                        0.2538325120993261       13.000000000000002       1638.0935471269358
-1                        0.005110016132438        12.857142857142858       13.624743395746487
-1                        0.25383251209932967      12.714285714285719       14.150376341523552
-1                        -0.2538325120993261      13.000000000000002       0.004225984623846756
-1                        -0.751277504033111       12.714285714285719       0.10497266084838364
-1                        -0.5025550080662191      12.85714285714286        0.10903014301774332
-1                        -0.25383251209933005     12.714285714285719       393.03778508839304
-1                        0.25383251209932634      12.428571428571436       0.5299985197533007
-1                        0.005110016132438444     12.57142857142858        13.106682662474258