% Model:              Cav_Hex_Unif_flux_v5.1 - Base Case.mph
% Version:            COMSOL 5.5.0.359
% Date:               Oct 26 2021, 17:03
% Dimension:          3
% Nodes:              3902
% Expressions:        1
% Description:        Surface
% x                       y                        z                        Color
-1                        -1                       0                        426361.551197347
-0.5999999999999999       -1                       0                        462053.4126844665
-0.8422448969394151       -1.4000000000000001      0                        413783.50612943055
-1.4                      -0.8422448969394065      0                        408666.57720216207
-1.4                      -1.4                     0                        438149.59523086046
-0.28093365989037916      -1.4000000000000001      0                        479198.97530019167
0.6000000000000001        -1                       0                        433963.1582879818
0.8422448969393652        -1.4                     0                        543130.6418618738
0.28093365989043206       -1.4                     0                        469249.4903084644
0.20000000000000018       -1                       0                        480032.48197917605
-1                        -0.6000000000000001      0                        468324.0088091989
-1.4                      -0.2809336598903699      0                        498072.4759543344
-1                        0.5999999999999999       0                        479607.72142991127
-1.4000000000000001       0.28093365989043817      0                        551735.6170197343
-1.4000000000000001       0.8422448969394553       0                        452202.08131445193
-1                        -0.20000000000000018     0                        545491.4567945183
-1                        0.1999999999999997       0                        523067.49987329106
-0.1999999999999997       -1                       0                        497178.04459490074
1                         -0.19999999999999993     0                        490942.31111506594
1                         0.20000000000000018      0                        512711.71776193153
1.4000000000000001        -0.28093365989041064     0                        513565.51850900415
1                         -0.5999999999999999      0                        601162.2529284285
1                         -1                       0                        612377.530818483
1.3999999999999997        -0.8422448969394183      0                        610269.0790821972
1.4                       -1.4                     0                        711993.0922501187
-1                        1                        0                        399086.97835762287
-0.8422448969393652       1.4                      0                        421993.25706415373
-0.6000000000000001       1                        0                        466148.85799113027
-0.28093365989043206      1.4                      0                        498103.25391438603
-0.2000000000000001       1                        0                        545491.456794518
0.19999999999999993       1                        0                        518010.4685475018
-1.4                      1.4                      0                        438149.59523086395
0.9999999999999998        0.5999999999999999       0                        585613.1907813804
1.4                       0.8422448969394137       0                        543661.1118180548
1.4                       0.2809336598904107       0                        545560.2323248669
0.28093365989037916       1.4000000000000001       0                        489580.4057115751
0.5999999999999999        1                        0                        473422.0774150298
1                         1                        0                        450440.6179538167
0.8422448969394073        1.4                      0                        388639.70459075365
1.4                       1.4                      0                        399029.095656677
-1                        -0.6000000000000001      0                        62363.53673906523
-1                        -0.6172444211421557      0.2558759227657026       35696.36726471688
-1                        -1                       0                        41788.69368366956
-1                        -0.20000000000000018     0                        46319.39345940121
-0.9999999999999998       -0.9999999999999998      0.4545454545454548       19390.7905402855
-1                        -0.5846581821741687      0.6812257746710638       45292.83745943128
-1                        -1                       0.9090909090909098       26713.87447449042
-1                        0.5999999999999999       0                        29349.22170765322
-1                        1                        0                        15939.64811888279
-1                        0.718637640754321        0.3004275980551885       36939.610400342455
-0.9999999999999998       0.9999999999999998       0.4545454545454548       28961.311992002575
-1                        0.6083719018289078       0.7078310665957677       37271.24679303448
-1                        -0.31872865710839987     0.4049269049582449       33780.59711946905
-1                        0.1999999999999997       0                        46330.46324923261
-1                        0.007600448319625253     0.3545273015469786       54643.84366667458
-1                        -0.17742365073029354     0.6669900734697531       74188.19293536678
-1                        0.38504021171955083      0.33919195424878096      42849.76925227412
-1                        0.17574245840912717      0.6720781330041969       57888.99028393789
-1                        0.26402765554825486      1.0322376281335943       42457.09376855266
-1                        -0.033161816231281505    0.9316907740303204       56906.9879796724
-1                        -0.3039759861871896      0.9468048380004302       68648.68987203902
-1                        -0.5974262452346017      1.139541524681702        30353.48023023516
-1                        -1                       1.363636363636365        23087.549955246952
-1                        0.6327865652532068       1.1616524340962897       28722.481938924466
-1                        1                        0.9090909090909098       30538.562320217014
-1                        -0.11267293984276977     1.3424664553638          45927.398591036166
-1                        0.3177706851066555       1.3733141280114314       37061.8392254704
-1                        0.6281409840834089       1.5967368512603741       33078.9494519641
-1                        -0.5832503632034832      1.5940248073276697       49935.60787081206
-1                        -1                       1.8181818181818192       32040.837299303308
-1                        -0.1774766541108519      1.9040211942242724       58360.34151429118
-1                        0.21219243609372684      1.8181818181818121       51231.155393227156
-0.9999999999999998       -0.9999999999999998      2.7272727272727293       53114.74852626584
-1.0000000000000002       -1.0000000000000002      2.2727272727272747       25453.35775232576
-1                        -0.6012192436093728      2.536363636363639        36904.587725608144
-1                        1                        1.363636363636365        18492.964630235405
-1                        0.6060962180468645       2.045454545454546        26113.366694737913
-1                        1                        1.8181818181818192       12224.305875182114
-1                        0.20785202444535722      2.2166853061133818       25893.30310323308
-1                        -0.5945499104145622      2.0806357018459214       34514.14642834648
-1                        -0.19393178860305005     2.3726434945982877       24653.038684979354
-1                        0.6060962180468643       2.5                      25964.111841687754
-1                        0.2054503548560114       2.66678157506044         19401.278877378
-1                        -0.19840087652440982     2.829337213859211        24571.855386729872
-1                        -0.6012192436093726      2.9909090909090974       31883.593323773053
-0.9999999999999998       -0.9999999999999998      3.1818181818181843       34425.821304297315
-1                        -0.1985142358113619      3.2836774144310965       17511.0888450893
-1                        -0.6012192436093722      3.445454545454551        27096.32023255856
-1                        -1                       3.63636363636364         20075.035995302107
-1.0000000000000002       1.0000000000000002       2.2727272727272747       27811.07808103932
-1                        0.6060962180468625       2.954545454545454        26399.402029360393
-0.9999999999999998       0.9999999999999998       2.7272727272727293       35156.95358349328
-1                        0.6060962180468645       3.4090909090909127       21117.290341220847
-1                        0.204270591044325        3.1208808263001497       22745.47344860784
-1                        -0.19853312902585388     3.7381886599809415       28582.04860108088
-1                        0.20404929760123514      3.5753072518837437       27364.668647368922
-1                        -0.6012192436093728      3.9000000000000057       21210.413205087018
-1.0000000000000002       -1.0000000000000002      4.090909090909095        17024.25994625184
-1                        -0.6012192436093728      4.354545454545451        31058.21810270868
-0.9999999999999998       -0.9999999999999998      4.5454545454545485       40381.093802237476
-0.9999999999999998       0.9999999999999998       3.1818181818181843       28737.668756927917
-1                        0.6060962180468643       3.863636363636367        20909.520552580063
-1                        1                        3.63636363636364         19490.629651941723
-1                        0.6060962180468645       4.318181818181821        24856.49715249153
-1                        0.20400830433719652      4.029825424644828        27669.90617645327
-1                        -0.198536277894936       4.192728413027131        16379.616601483767
-1                        -0.19853680270644966     4.647272917322702        33799.74128352616
-1                        0.20400078695593593      4.484365091622219        23839.66897927084
-1                        -0.6012192436093726      4.809090909090905        45275.61782756364
-1                        -1                       5.000000000000005        47741.29092840815
-1                        -0.6012192436093726      5.2636363636363726       31657.212203762017
-1.0000000000000002       -1.0000000000000002      5.45454545454546         20031.18304460778
-1.0000000000000002       1.0000000000000002       4.090909090909095        25315.809214118548
-1                        0.6060962180468625       4.7727272727272805       22497.118474080573
-0.9999999999999998       0.9999999999999998       4.5454545454545485       38897.15239194623
-1                        0.6060962180468663       5.227272727272726        37576.75577452266
-1                        0.20399941986396164      4.9389093748056565       28858.583634988234
-1                        -0.19853689017503529     5.101818213493177        35509.44271368838
-1                        -0.19853690475313304     5.556363641642803        33303.78632745322
-1                        0.20399917298278303      5.393454599662881        31430.26608717827
-1                        -0.6012192436093733      5.718181818181831        20930.446300542313
-1                        -1                       5.909090909090914        27807.555436592826
-1                        -0.6012192436093727      6.172727272727285        20605.825619960935
-0.9999999999999998       -0.9999999999999998      6.363636363636369        14876.310210070507
-1                        1                        5.000000000000005        36605.59367177632
-1                        0.6060962180468645       5.681818181818188        31816.545634955746
-1.0000000000000002       1.0000000000000002       5.45454545454546         44565.59235183654
-1                        0.6060962180468645       6.136363636363642        23153.654057644817
-1                        0.20399912866383343      5.848000010183432        32066.209801914578
-1                        -0.19853690718281625     6.0109090917889585       32942.75044681956
-1                        -0.19853690758776343     6.465454545601199        19899.319448093927
-1                        0.20399912074866045      6.302545456434148        28157.500880805655
-1                        -0.6012192436093728      6.627272727272739        14109.123749571338
-1.0000000000000002       -1.0000000000000002      6.818181818181826        25806.19737101506
-1                        -0.6012192436093724      7.081818181818194        26128.088345809356
-0.9999999999999996       -0.9999999999999996      7.272727272727279        19316.0040952143
-1                        1                        5.909090909090914        29570.605966125542
-1                        0.6060962180468625       6.590909090909092        10094.670883385656
-0.9999999999999998       0.9999999999999998       6.363636363636369        21190.032621353046
-1                        -0.19853690765525434     6.920000000024453        20697.127239309048
-1                        0.6060962180468643       7.045454545454556        4913.1732585427535
-1                        0.20399911934135154      6.757090909437609        18395.29669591865
-1                        -0.19853690766650267     7.3745454545495415       17533.037022093216
-1                        0.20399911909211488      7.211636363699476        11973.665336063023
-1                        -0.6012192436093726      7.536363636363648        10926.05325736635
-0.9999999999999998       -0.9999999999999998      7.727272727272733        7760.293725535968
-1                        -0.6012192436093724      7.990909090909097        6049.680542302599
-1                        -1                       8.18181818181819         1404.4761391279674
-1.0000000000000002       1.0000000000000002       6.818181818181826        8283.023845270267
-1                        0.6060962180468643       7.500000000000009        9856.88714811325
-0.9999999999999996       0.9999999999999996       7.272727272727279        77.88996480162733
-1                        -0.19853690766837712     7.829090909091603        17393.17310352402
-1                        0.6060962180468625       7.9545454545454675       20217.11223188159
-1                        0.20399911904812787      7.666181818193238        23471.130695041833
-1                        -0.1985369076686894      8.28363636363649         13983.40867563393
-1                        0.20399911904038937      8.120727272729331        22898.31541867429
-1                        -0.6012192436093726      8.445454545454556        8170.629035877374
-1                        -1                       8.636363636363644        6528.239780797343
-1                        -0.6012192436093737      8.90000000000001         7384.711527167435
-0.9999999999999998       0.9999999999999998       7.727272727272733        1458.9856664086135
-1                        0.6060962180468685       8.409090909090914        7529.879575907496
-1                        1                        8.18181818181819         1770.9122911066577
-1                        -0.1985369076687422      8.73818181818185         12059.982977014508
-1                        0.20399911903903156      8.575272727273106        7238.997274889784
-1                        0.20399911903879286      9.029818181818259        4618.4736748093355
-1                        -0.19853690766875154     9.192727272727286        4924.302143059659
-0.9999999999999998       -0.9999999999999998      9.090909090909093        54.83181661333771
-1                        -0.6012192436093728      9.354545454545464        8407.110514810223
-1                        -1                       9.54545454545455         7870.840811008246
-1                        0.6060962180468641       8.863636363636363        4849.750915204376
-1                        0.6060962180468626       9.31818181818182         10602.06006910436
-1                        1                        8.636363636363644        3236.3005267956128
-1                        0.20399911903875112      9.484363636363655        3846.988234834917
-1                        -0.19853690766875248     9.647272727272735        8961.163722185318
-1                        -0.6012192436093724      9.809090909090916        14861.501879852114
-1                        0.2039991190387445       9.938909090909114        7667.0447752175105
-1.0000000000000002       -1.0000000000000002      10.000000000000007       15473.74886965676
-1                        -0.6012192436093726      10.263636363636373       11063.817687037294
-1                        -1                       10.45454545454546        8998.71275099897
-0.9999999999999998       0.9999999999999998       9.090909090909093        15601.705731707245
-1                        0.6060962180468645       9.772727272727275        13258.322509190832
-1                        0.6060962180468645       10.227272727272737       7292.194051272266
-1                        1                        9.54545454545455         14819.36706807222
-1                        -0.19853690766875243     10.101818181818194       10950.95934119804
-1                        0.20399911903874313      10.393454545454563       4065.510086758268
-1                        -1                       10.909090909090914       13161.729926788457
-1                        -0.6012192436093728      10.718181818181831       10553.163853490767
-1                        -0.19853690766875243     10.556363636363649       4807.049691706107
-1                        0.20399911903874313      10.84800000000001        11751.59069014372
-1                        -0.6012192436093728      11.17272727272728        11285.437388933524
-1                        -1                       11.363636363636367       6471.776414267668
-1.0000000000000002       1.0000000000000002       10.000000000000007       14613.48391772403
-1                        0.6060962180468636       10.681818181818194       6563.542075548713
-1                        0.6060962180468656       11.136363636363642       7646.96816021598
-1                        1                        10.45454545454546        1406.4852539368328
-1                        -0.19853690766875248     11.010909090909093       5371.471901812636
-1                        0.2039991190387429       11.30254545454546        4716.856963801881
-1                        -1                       11.818181818181824       13150.21855562491
-1                        -0.6012192436093732      11.627272727272736       7338.683940345247
-1                        -0.19853690766875284     11.465454545454556       1536.126153550186
-1                        0.20399911903874268      11.757090909090913       388.68199733586334
-1                        -0.6012192436093724      12.081818181818193       9760.118894008632
-1                        -1                       12.27272727272728        12870.823673281388
-1                        1                        10.909090909090914       14.576191757707086
-1                        0.6060962180468625       11.590909090909093       3637.8758110218173
-1                        0.6060962180468646       12.045454545454554       3322.627866995279
-1                        1                        11.363636363636367       6502.404131491637
-1                        -0.19853690766875265     11.920000000000005       6390.952175990569
-1                        0.20399911903874313      12.211636363636371       6395.349165584709
-1                        -1                       12.727272727272734       20.627288896134207
-1                        -0.601219243609373       12.536363636363642       40.841048688579804
-1                        -0.1985369076687522      12.37454545454546        3236.227834717576
-1                        0.20399911903874357      12.66618181818182        678.8959496073252
-1                        -0.6012192436093728      12.990909090909097       3.1556413678953743
-1                        -1                       13.181818181818183       4.211628522040301
-1                        1                        11.818181818181824       6510.308132802609
-1                        0.6060962180468643       12.500000000000009       7071.09701371957
-1                        0.6060962180468663       12.954545454545459       3893.9254142186255
-1                        1                        12.27272727272728        6499.489512240783
-1                        -0.1985369076687522      12.82909090909091        800.085276462401
-1                        0.20399911903874338      13.120727272727278       774.0177134647679
-1                        -1                       13.63636363636364        0.42797273910322037
-1                        -0.6012192436093731      13.445454545454552       2.3124299374706014
-1                        -0.19853690766875265     13.283636363636369       764.2812745288876
-1                        -1                       14.090909090909093       308.1602255537239
-1                        -0.6012192436093728      13.900000000000006       3845.8957084096924
-1                        1                        12.727272727272734       6499.610296467276
-1                        0.6060962180468636       13.409090909090908       3887.7439083304266
-1                        0.2039991190387429       13.57527272727273        7000.946445811921
-1                        0.6060962180468645       13.863636363636369       7205.501359910163
-1                        1                        13.181818181818183       6501.586839697451
-1                        -0.19853690766875287     13.738181818181818       3816.3331330602737
-1                        0.20399911903874268      14.029818181818188       6364.07062671526
-1                        -1                       14.545454545454549       256.88567295018726
-1                        -0.6012192436093731      14.35454545454546        3470.350978571387
-1                        -0.19853690766875282     14.192727272727272       3851.5545801624085
-1                        -0.6012192436093728      14.809090909090914       128.23445090697706
-1                        1                        13.63636363636364        10.416619767171971
-1                        -1                       15.000000000000005       2.070867431975645
-1                        0.6060962180468636       14.31818181818182        9884.591223366335
-1                        0.2039991190387429       14.484363636363637       51.92724305976001
-1                        0.6060962180468656       14.772727272727275       6463.98240181647
-1                        1                        14.090909090909093       13269.540917955756
-1                        -0.19853690766875265     14.647272727272728       163.79657336806386
-1                        0.2039991190387429       14.938909090909092       3341.4898320234365
-1                        -1                       15.454545454545455       267.4994233801975
-1                        -0.6012192436093733      15.263636363636365       136.76814657691304
-1                        -0.19853690766875265     15.101818181818185       137.6146453918044
-1                        -0.6012192436093724      15.718181818181822       135.97945317467966
-1                        1                        14.545454545454549       13009.546728411764
-0.9999999999999998       -0.9999999999999998      15.90909090909091        12.819491738264139
-1                        0.6060962180468625       15.22727272727273        3312.0907769048026
-1                        0.20399911903874313      15.393454545454546       255.9872150548667
-1                        0.6060962180468663       15.681818181818182       128.57180592716188
-1                        1                        15.000000000000005       0.001999030346441342
-1                        -0.19853690766875248     15.556363636363638       7.592858897716048
-1                        0.20399911903874313      15.848000000000004       0.2525085928830976
-0.9999999999999998       -0.9999999999999998      16.363636363636363       1296.4122902200995
-1                        -0.6012192436093728      16.172727272727276       4462.835624472372
-1                        -0.1985369076687524      16.0109090909091         3814.9235378725602
-1                        -0.6012192436093724      16.627272727272732       779.5835695319461
-1                        1                        15.454545454545455       0.0014698379602648907
-1                        -1                       16.818181818181817       10.27200334641289
-1                        0.2039991190387429       16.302545454545452       0.003402348731526387
-1                        0.6060962180468625       16.136363636363637       0.21627837028975125
-0.9999999999999998       0.9999999999999998       15.90909090909091        8.295971716709706E-5
-1                        -0.19853690766875243     16.46545454545454        3947.1285497773843
-1                        0.20399911903874313      16.75709090909091        25.64754394512623
-1                        -1                       17.272727272727277       1.0771321754900856E-12
-1                        -0.6012192436093731      17.08181818181819        26.651957415145787
-1                        -0.19853690766875243     16.92                    179.45221914234978
-1                        0.6060962180468656       16.590909090909093       5.407654847695855
-1                        -0.6012192436093728      17.536363636363635       0.008463501653842754
-1                        -1                       17.727272727272727       8.962246169757333E-16
-1                        0.2039991190387429       17.211636363636362       661.4611755831942
-1                        0.6060962180468634       17.04545454545454        0.0016650408519116979
-0.9999999999999998       0.9999999999999998       16.363636363636363       10.815282551410213
-1                        -0.19853690766875243     17.37454545454545        1298.4788209309866
-1                        0.20399911903874357      17.66618181818182        1272.2352196493441
-0.9999999999999998       -0.9999999999999998      18.181818181818176       1.7502853924649272E-9
-1                        -0.6012192436093731      17.990909090909092       2.625869341834486E-6
-1                        -0.19853690766875248     17.829090909090905       636.2229454869432
-1                        1                        16.818181818181817       10.402512022066446
-1                        0.6060962180468636       17.5                     0.05144370906420976
-1                        -0.6012192436093735      18.445454545454545       3178.940447177343
-0.9999999999999998       -0.9999999999999998      18.636363636363637       0.08217602583142734
-1                        0.20399911903874313      18.120727272727276       0.20522283853497417
-1                        0.6060962180468685       17.954545454545453       129.989857878502
-1                        1                        17.272727272727277       0.0865224826389679
-1                        -0.19853690766875287     18.28363636363636        0.0016960031648449436
-1                        0.20399911903874224      18.575272727272726       1299.888113296082
-1.0000000000000002       -1.0000000000000002      19.09090909090909        6430.273963143722
-1                        -0.6012192436093724      18.9                     6521.233478510286
-1                        -0.19853690766875293     18.738181818181815       3332.531309717093
-1                        1                        17.727272727272727       0.08332662819355131
-1                        0.6060962180468625       18.409090909090903       766.696647938738
-1                        -1                       20                       5.668972643072143E-13
-1                        -1                       19.545454545454547       6420.001964216456
-1                        -0.6012192436093728      19.809090909090912       3210.0009828373927
-1                        -0.6012192436093724      19.354545454545455       6425.13802893044
-1                        0.20399911903874268      19.02981818181818        664.1999237513454
-1                        0.6060962180468625       18.86363636363636        1299.4084716233178
-0.9999999999999998       0.9999999999999998       18.181818181818176       259.9795805580709
-1                        -0.19853690766875243     19.192727272727275       127.15605245039274
-1                        0.20399911903874313      19.484363636363643       2.0390893137949964
-1                        -0.19853690766875218     19.647272727272732       127.20219224488314
-0.9999999999999998       0.9999999999999998       18.636363636363637       51.99591077080709
-1                        0.6060962180468645       19.31818181818182        1.0204275138052317
-1                        -0.19853690766875243     20.101818181818185       763.1855155749325
-1                        -0.6012192436093728      20.263636363636365       661.4638213347549
-1                        -1                       20.454545454545453       0.09861649105163833
-1                        -0.6012192436093731      20.718181818181826       26.509396769662985
-1                        0.20399911903874338      19.938909090909092       129.23964874035306