% Model:              Cav_Hex_Unif_flux_v5.1 - Base Case.mph
% Version:            COMSOL 5.5.0.359
% Date:               Oct 26 2021, 17:46
% Table:              Evaluation Group 1 - Global Powers/Variables - 
% LD_ratio               Q_abs (W)                Q_BHS (W)                T_g_in (K)               T_g_out (K)              Q_rad_loss (W)           Q_rad_loss_int (W)       Q_rad_loss_front (W)     Q_abs_out (W)            Q_abs_in (W)
10                       4.025267355866463        4.346484748667505        358.1399448563814        807.2488469730946        0.43872847110314006      0.2201704561292722       0.2185580149738679       4.062867926205598        -0.19752323151032847
20                       4.231657016659593        4.41179703937797         359.1253012587572        831.8752217004464        0.34822389710569623      0.1742706779959601       0.17395321910973516      4.226084410702654        -0.19606919363106584
40                       4.231472875115113        4.415731179465074        362.1749211088201        838.4212610877241        0.34046751037554657      0.17033961140099993      0.17012789897454833      4.236210305852633        -0.1941800744214296
80                       4.178355340540203        4.41046160408244         368.6087540414272        844.3227488928883        0.3471371520218617       0.17367062986063328      0.17346652216122713      4.220652257734405        -0.19139594775261887
