% Model:              Cav_Hex_Unif_flux_v5.1 - Base Case.mph
% Version:            COMSOL 5.5.0.359
% Date:               Oct 26 2021, 12:25
% Table:              Evaluation Group 1 - Global Powers/Variables - 
% LD_ratio               Q_abs (W)                Q_BHS (W)                T_g_in (K)               T_g_out (K)              Q_rad_loss (W)           Q_rad_loss_int (W)       Q_rad_loss_front (W)
10                       4.025267355866463        4.346484748667505        358.1399448563814        807.2488469730946        0.43872847110314006      0.21838914057679568      0.216703895818394
20                       4.231657016659593        4.41179703937797         359.1253012587572        831.8752217004464        0.34822389710569623      0.17248936244348356      0.17209809698566292
40                       4.231472875115113        4.415731179465074        362.1749211088201        838.4212610877241        0.34046751037554657      0.16855829584852342      0.1682724795728761
80                       4.178355340540203        4.41046160408244         368.6087540414272        844.3227488928883        0.3471371520218617       0.1718893143081567       0.17161107732565797
