% Model:              Cav_Hex_Unif_flux_v5.1.mph
% Version:            COMSOL 5.5.0.359
% Date:               Sep 19 2021, 11:36
% Table:              Evaluation Group 1 - 
% R_channel (mm)         t (ns)                   P_ap (W)
0.5                      0.9999999999999999       2.0802862196315735
1                        0.9999999999999999       4.975973068879592
2                        0.9999999999999999       14.237545218919623
4                        0.9999999999999999       47.735302794340186
8                        0.9999999999999999       145.15854960176202
