% Model:              Cav_Hex_Unif_flux_v5.1 - Base Case.mph
% Version:            COMSOL 5.5.0.359
% Date:               May 16 2022, 15:36
% Table:              Evaluation Group 4 - 
% P_to_m (kJ/kg)         Q_abs (W)                Q_BHS (W)                T_g_in (K)               T_g_out (K)              Q_rad_loss (W)           Q_rad_loss_int (W)       Q_rad_loss_front (W)     Q_abs_out (W)            Q_abs_in (W)             BHS_int (W)              BHS_front (W)
100                      3.9761790469484555       4.41354363803059         326.3280571700086        398.017245563563         0.030102502303249404     0.014905926264785561     0.015196576038463827     5.758173351551761        -1.3730695362179244      2.5248340180252526       1.8887096200053375
200                      4.125526773087827        4.41354363803059         331.09267221705414       476.79527605466234       0.058023685317176936     0.028801834403449862     0.02922185091372707      5.035580303665121        -0.6852809023756987      2.5248340180252526       1.8887096200053375
300                      4.192120668187692        4.41354363803059         336.58198562155195       553.8823469593264        0.09582018884224289      0.0476622986638164       0.04815789017842642      4.764691865893493        -0.45669905377238856     2.5248340180252526       1.8887096200053375
400                      4.231144146759276        4.41354363803059         342.51772928959264       628.6970179215473        0.14388627666510354      0.07169364753232653      0.07219262913277702      4.598215155961485        -0.3424836557280191      2.5248340180252526       1.8887096200053375
500                      4.249850286044032        4.41354363803059         348.588765634275         700.5812530341686        0.20130643180839236      0.10045395231637906      0.10085247949201302      4.466247720474236        -0.27397175967846343     2.5248340180252526       1.8887096200053375
600                      4.250682102904803        4.41354363803059         354.7079225479325        769.219388755113         0.26711680647621805      0.13347720309572914      0.13363960338048933      4.348631759934024        -0.22830300828876438     2.5248340180252526       1.8887096200053375
700                      4.234074507675762        4.41354363803059         360.73654779831145       834.2383679295732        0.3400072417581012       0.17012149503925708      0.1698857467188448       4.236296203944925        -0.1956847936565476      2.5248340180252526       1.8887096200053375
