% Model:              Cav_Hex_Unif_flux_v5.2.1 - Lin. Distn.mph
% Version:            COMSOL 5.5.0.359
% Date:               Apr 8 2022, 13:51
% Dimension:          1
% Nodes:              345
% Expressions:        7
% Description:        Line graph
% x                       Height                   Height                   Height                   Height                   Height                   Height                   Height
0                         317.99853698253037       317.9978023131312        317.99626610904755       317.9946854575165        317.9758134344656        317.95940676812575       317.9392114834532
0.6871352458702763        318.0017691628227        318.00199213674836       317.9994201369843        317.9937675156842        317.9547899643829        317.91550482791774       317.86391229425794
1.3742704917405526        318.005001343115         318.00618196036544       318.00257416492116       317.9928495738519        317.93376649430024       317.8716028877097        317.7886131050626
2.061405737610829         318.0082335234073        318.0103717839826        318.005728192858         317.99193163201966       317.91274302421755       317.8277009475016        317.71331391586733
2.748540983481105         318.0114657036996        318.0145616075997        318.0088822207948        317.9910136901874        317.8917195541349        317.7837990072936        317.63801472667205
3.4392524435965095        318.0283421058076        317.99575893172124       317.9039852327223        317.77792189624887       317.5685528581855        317.34177512379733       317.08746788647824
4.129963903711914         318.04521850791554       317.97695625584277       317.79908824464974       317.56483010231034       317.2453861622361        316.89975124030104       316.5369210462844
4.820675363827318         318.06209491002346       317.95815357996435       317.6941912565772        317.3517383083718        316.9222194662867        316.4577273568048        315.9863742060906
5.511386823942722         318.07897131213144       317.93935090408587       317.58929426850466       317.1386465144333        316.5990527703373        316.0157034733085        315.4358273658968
6.202098284058128         318.06131555295815       317.8650793652338        317.47056395188457       316.9821734012002        316.41361969413197       315.79323127407173       315.1845672574483
6.892809744173533         318.0436597937848        317.79080782638164       317.3518336352645        316.82570028796715       316.22818661792667       315.57075907483494       314.9333071489998
7.58352120428894          318.02600403461145       317.71653628752955       317.23310331864445       316.66922717473403       316.0427535417213        315.34828687559815       314.6820470405513
8.274232664404344         318.00834827543815       317.64226474867746       317.11437300202437       316.51275406150097       315.85732046551595       315.12581467636136       314.4307869321028
8.969771882018696         317.9597032008605        317.53408956740304       316.98655415419074       316.3715192220262        315.7311662335957        315.0510483110471        314.43403024723625
9.665311099633046         317.9110581262828        317.4259143861287        316.8587353063571        316.23028438255153       315.60501200167533       314.9762819457329        314.4372735623697
10.360850317247396        317.86241305170506       317.3177392048543        316.7309164585235        316.08904954307684       315.478857769755         314.9015155804187        314.44051687750317
11.056389534861747        317.8137679771274        317.2095640235799        316.6030976106899        315.94781470360215       315.3527035378347        314.8267492151044        314.4437601926366
11.7519287524761          317.751673557529         317.11143667274257       316.5152899417031        315.91972231544923       315.430430864829         315.0421739074652        314.80613484347145
12.447467970090452        317.6895791379306        317.0133093219053        316.42748227271636       315.89162992729626       315.5081581918233        315.257598599826         315.16850949430625
13.143007187704804        317.6274847183322        316.915181971068         316.3396746037296        315.8635375391433        315.5858855188177        315.47302329218684       315.53088414514104
13.838546405319157        317.5653902987338        316.8170546202307        316.2518669347428        315.8354451509904        315.663612845812         315.6884479845476        315.8932587959759
14.539608600021005        317.5626061400001        316.96712429914874       316.6276160025699        316.50363826375894       316.6597569847437        317.0241313921154        317.57581028432475
15.240670794722853        317.55982198126645       317.1171939780668        317.00336507039697       317.1718313765275        317.65590112367533       318.35981479968314       319.2583617726736
15.941732989424702        317.5570378225328        317.2672636569849        317.3791141382241        317.840024489296         318.652045262607         319.6954982072509        320.94091326102244
16.64279518412655         317.5542536637991        317.4173333359029        317.7548632060512        318.5082176020646        319.6481894015387        321.0311816148187        322.6234647493713
17.343857378828396        317.61034654046637       317.71707787999065       318.3655077326513        319.4739683104782        320.9995982096775        322.79137676217084       324.7938164029158
18.044919573530247        317.6664394171336        318.0168224240783        318.9761522592513        320.4397190188919        322.3510070178164        324.551571909523         326.9641680564604
18.7459817682321          317.7225322938008        318.31656696816606       319.58679678585133       321.40546972730556       323.7024158259553        326.31176705687506       329.1345197100049
19.447043962933947        317.778625170468         318.6163115122538        320.1974413124514        322.3712204357192        325.05382463409416       328.0719622042272        331.3048713635494
20.14810615763579         317.8610456657167        318.93591826255164       320.7991681877169        323.3019196101521        326.34326256855513       329.75175327900047       333.3912419632244
20.84916835233764         317.94346616096533       319.2555250128495        321.4008950629823        324.23261878458493       327.63270050301605       331.4315443537738        335.4776125628994
21.550230547039487        318.02588665621397       319.5751317631474        322.0026219382477        325.16331795901783       328.922138437477         333.11133542854714       337.56398316257446
22.25129274174133         318.10830715146267       319.89473851344525       322.6043488135132        326.0940171334507        330.2115763719379        334.7911265033204        339.65035376224944
22.952354936443182        318.1778520944897        320.1870849886667        323.170883219076         326.96993107723335       331.42316015295467       336.34430545552          341.56218479781313
23.65341713114503         318.24739703751675       320.4794314638881        323.7374176246388        327.8458450210161        332.6347439339715        337.89748440771956       343.4740158333768
24.35447932584687         318.31694198054385       320.7717779391095        324.3039520302016        328.72175896479877       333.8463277149883        339.45066335991913       345.3858468689406
25.055541520548722        318.3864869235709        321.06412441433093       324.8704864357644        329.59767290858144       335.0579114960051        341.0038423121187        347.29767790450427
25.75660371525057         318.5094640781456        321.46349229283624       325.59170867622475       330.6776033899284        336.52416385596354       342.86797275036986       349.5740209829994
26.457665909952418        318.6324412327202        321.8628601713416        326.3129309166851        331.7575338712753        337.990416215922         344.73210318862095       351.8503640614945
27.158728104654266        318.75541838729487       322.26222804984695       327.0341531571454        332.8374643526223        339.4566685758805        346.59623362687205       354.1267071399896
27.859790299356114        318.8783955418695        322.6615959283523        327.75537539760575       333.91739483396924       340.92292093583893       348.4603640651232        356.40305021848474
28.560852494057958        319.04628379358036       323.1592377486301        328.63311198093413       335.22579141962046       342.70457370829604       350.7467008372149        359.2090252868535
29.261914688759806        319.2141720452912        323.6568795689079        329.5108485642625        336.53418800527163       344.4862264807531        353.0330376093067        362.0150003552222
29.962976883461653        319.3820602970021        324.1545213891858        330.3885851475909        337.8425845909228        346.2678792532102        355.31937438139846       364.8209754235909
30.664039078163498        319.54994854871296       324.6521632094636        331.2663217309193        339.15098117657396       348.0495320256673        357.6057111534902        367.62695049195963
31.36510127286535         319.71969431953          325.1555256590429        332.15395333086394       340.47212069196854       349.83141839691484       359.8633145763834        370.38312961965374
32.06616346756719         319.8894400903471        325.65888810862225       333.04158493080854       341.7932602073631        351.61330476816244       362.12091799927657       373.13930874734785
32.76722566226905         320.0591858611641        326.16225055820155       333.9292165307532        343.1143997227577        353.39519113941003       364.3785214221698        375.895487875042
33.468287856970896        320.22893163198114       326.66561300778085       334.81684813069785       344.4355392381523        355.17707751065757       366.63612484506297       378.65166700273613
34.169350051672744        320.4601345831081        327.28166234839995       335.86066517273093       345.93047283975096       357.1245318955139        369.04404337516274       381.5327401745204
34.87041224637459         320.691337534235         327.89771168901905       336.904482214764         347.42540644134954       359.0719862803701        371.4519619052626        384.4138133463048
35.57147444107644         320.922540485362         328.5137610296382        337.9482992567971        348.9203400429482        361.01944066522634       373.85988043536236       387.2948865180891
36.27253663577829         321.1537434364889        329.1298103702573        338.9921162988302        350.41527364454686       362.9668950500826        376.2677989654622        390.17595968987337
36.973598830480135        321.3544883896628        329.66309605734267       339.8994947207477        351.7147840220518        364.6716563704996        378.3955425337345        392.7349804553006
37.67466102518198         321.5552333428366        330.196381744428         340.8068731426653        353.0142943995568        366.3764176909166        380.52328610200675       395.29400122072775
38.375723219883824        321.7559782960104        330.72966743151335       341.7142515645829        354.3138047770617        368.0811790113336        382.65102967027906       397.853021986155
39.07678541458567         321.9567232491842        331.2629531185987        342.62162998650047       355.6133151545667        369.78594033175057       384.77877323855137       400.4120427515822
39.77784760928752         322.17735584125234       331.82254263665953       343.54950311542984       356.9341716323416        371.50238605647957       386.8754405637774        402.8853437255726
40.47890980398937         322.3979884333205        332.38213215472035       344.4773762443592        358.2550281101165        373.2188317812086        388.97210788900344       405.3586446995631
41.179971998691215        322.6186210253886        332.94172167278117       345.40524937328854       359.5758845878914        374.9352775059376        391.0687752142295        407.8319456735536
41.88103419339306         322.8392536174568        333.501311190842         346.3331225022179        360.8967410656663        376.6517232306667        393.1654425394555        410.3052466475441
42.58209638809491         323.0464792898069        334.0191226038521        347.18337476656154       362.09538130140356       378.18831485047906       395.0266091104362        412.48304390296914
43.28315858279676         323.2537049621569        334.5369340168622        348.0336270309052        363.2940215371408        379.72490647029144       396.8877756814168        414.66084115839425
43.98422077749861         323.460930634507         335.05474542987224       348.88387929524885       364.492661772878         381.26149809010377       398.74894225239746       416.83863841381935
44.685282972200454        323.6681563068571        335.57255684288236       349.73413155959247       365.6913020086153        382.79808970991616       400.61010882337814       419.0164356692444
45.3863451669023          323.9487166515316        336.25365541241615       350.84617510840707       367.2467282741734        384.8042012926801        403.0462010229501        421.85596061214744
46.08740736160414         324.22927699620607       336.93475398195          351.95821865722166       368.8021545397314        386.8103128754441        405.482293222522         424.6954855550504
46.788469556306           324.50983734088055       337.61585255148384       353.0702622060362        370.3575808052895        388.816424458208         407.9183854220939        427.5350104979534
47.489531751007846        324.79039768555504       338.2969511210176        354.1823057548508        371.9130070708476        390.82253604097195       410.3544776216658        430.37453544085645
48.19059394570969         325.0652982435113        338.957847716094         355.2451752079238        373.38629464273185       392.687102193316         412.60997727310786       433.0022407479967
48.891656140411534        325.3401988014675        339.6187443111704        356.3080446609968        374.859582214616         394.55166834566          414.86547692454997       435.6299460551371
49.59271833511338         325.61509935942377       340.2796409062468        357.3709141140698        376.3328697865002        396.4162344980041        417.120976575992         438.2576513622774
50.29378052981523         325.88999991738          340.9405375013232        358.4337835671428        377.80615735838444       398.2808006503481        419.3764762274341        440.8853566694177
50.994842724517085        326.1028705259977        341.4502073815406        359.2551391655811        378.94528848690425       399.7279728959399        421.1238922652706        442.9259224281665
51.69590491921894         326.3157411346153        341.9598772617581        360.07649476401934       380.08441961542417       401.17514514153163       422.87130830310707       444.96648818691517
52.39696711392079         326.5286117432329        342.46954714197557       360.89785036245763       381.22355074394403       402.6223173871234        424.6187243409436        447.0070539456639
53.09802930862264         326.74148235185055       342.979217022193         361.7192059608959        382.3626818724639        404.0694896327152        426.36614037878          449.0476197044127
53.799091503324476        327.073180137985         343.7471014120505        362.936780247427         384.0060113995293        406.13764979121083       428.8589362470046        451.96187174006917
54.500153698026324        327.40487792411943       344.51498580190804       364.1543545339581        385.64934092659473       408.2058099497065        431.3517321152292        454.87612377572566
55.20121589272817         327.73657571025393       345.2828701917656        365.3719288204892        387.2926704536601        410.2739701082022        433.84452798345376       457.79037581138215
55.90227808743001         328.0682734963884        346.0507545816231        366.5895031070203        388.9359999807255        412.34213026669784       436.3373238516783        460.70462784703864
56.60334028213187         328.3806418734047        346.7738348097986        367.73825355493966       390.5240223115442        414.3706451367823        438.7891510615332        463.55221578606364
57.304402476833715        328.6930102504211        347.496915037974         368.88700400285916       392.1120446423628        416.3991600068668        441.24097827138803       466.39980372508865
58.00546467153556         329.00537862743744       348.21999526614945       370.0357544507786        393.7000669731814        418.4276748769513        443.69280548124294       469.2473916641137
58.70652686623742         329.3177470044538        348.94307549432494       371.18450489869804       395.288089304            420.45618974703575       446.1446326910978        472.0949796031387
59.407589060939266        329.6550001239581        349.70559223149644       372.38321517353916       396.9208134560178        422.5122658580933        448.6167572491622        474.99170738833914
60.10865125564112         329.9922532434623        350.46810896866793       373.5819254483802        398.5535376080357        424.5683419691509        451.08888180722664       477.8884351735395
60.80971345034297         330.3295063629666        351.2306257058395        374.7806357232213        400.1862617600535        426.62441808020844       453.56100636529106       480.7851629587399
61.510775645044816        330.66675948247087       351.993142443011         375.9793459980624        401.8189859120714        428.680494191266         456.0331309233555        483.68189074394024
62.21183783974666         330.9402430464246        352.60719716090034       376.95079280400677       403.1489043094957        430.34901624442676       458.02202539993425       485.9491018202275
62.912900034448505        331.21372661037833       353.22125187878976       377.92223960995113       404.47882270691997       432.0175382975875        460.01091987651296       488.21631289651475
63.61396222915036         331.487210174332         353.8353065966791        378.89368641589556       405.8087411043442        433.6860603507483        461.99981435309166       490.483523972802
64.31502442385221         331.76069373828574       354.4493613145685        379.8651332218399        407.13865950176853       435.35458240390903       463.98870882967043       492.75073504908926
65.01608661855404         332.0520071721666        355.1031649166677        380.9045662112912        408.5510116823249        437.10869262832364       466.04229665796174       495.07937850431546
65.71714881325589         332.3433206060474        355.75696851876694       381.9439992007424        409.96336386288124       438.86280285273824       468.095884486253         497.40802195954154
66.41821100795772         332.6346340399283        356.4107721208661        382.98343219019364       411.3757160434376        440.6169130771529        470.1494723145443        499.73666541476774
67.11927320265957         332.9259474738091        357.06457572296534       384.0228651796449        412.78806822399395       442.3710233015675        472.2030601428356        502.0653088699939
67.82033539736143         333.2013175070849        357.6836097924676        384.99971776655894       414.1085229964053        444.02767986307686       474.1802952424669        504.365101419101
68.52139759206327         333.47668754036073       358.30264386196995       385.976570353473         415.4289777688167        445.68433642458615       476.1575303420981        506.6648939682081
69.22245978676513         333.75205757363653       358.92167793147223       386.9534229403871        416.7494325412281        447.3409929860955        478.13476544172937       508.9646865173152
69.92352198146698         334.02742760691234       359.54071200097457       387.93027552730115       418.06988731363947       448.99764954760485       480.1120005413606        511.2644790664223
70.62458417616884         334.3558178744856        360.2660722478666        389.0739155240247        419.6123164881152        450.9340029141741        482.4326225307195        513.9518451595491
71.32564637087069         334.6842081420588        360.99143249475856       390.21755552074825       421.1547456625909        452.8703562807433        484.7532445200785        516.6392112526758
72.02670856557253         335.01259840963206       361.7167927416506        391.3611955174718        422.6971748370666        454.80670964731246       487.0738665094375        519.3265773458024
72.72777076027438         335.3409886772053        362.44215298854255       392.50483551419535       424.2396040115423        456.7430630138817        489.3944884987964        522.0139434389291
73.42883295497623         335.60556237390716       363.0236018950034        393.4184395084094        425.46323819164013       458.2648644995757        491.1983873939389        524.0856688437059
74.12989514967808         335.8701360706091        363.60505080146436       394.33204350262343       426.6868723717379        459.78666598526974       493.00228628908144       526.1573942484828
74.83095734437991         336.13470976731094       364.18649970792524       395.2456474968375        427.9105065518356        461.30846747096376       494.8061851842239        528.2291196532597
75.53201953908176         336.3992834640128        364.76794861438617       396.1592514910515        429.1341407319334        462.8302689566578        496.6100840793664        530.3008450580364
76.23308173378359         336.6961837729565        365.41192617213954       397.15889805390134       430.4789444093242        464.4950647177965        498.5782910862661        532.5482972686176
76.93414392848545         336.9930840819001        366.05590372989286       398.1585446167512        431.823748086715         466.15986047893523       500.54649809316584       534.7957494791988
77.6352061231873          337.28998439084376       366.69988128764624       399.15819117960103       433.1685517641058        467.824656240074         502.5147051000656        537.04320168978
78.33626831788915         337.58688469978745       367.34385884539955       400.15783774245085       434.51335544149657       469.4894520012127        504.48291210696533       539.2906539003611
79.037330512591           337.8747462502499        367.9586141389238        401.0974057899922        435.7618788539705        471.01767382098836       506.2694359027415        541.3170537255837
79.73839270729286         338.1626078007124        368.57336943244803       402.03697383753354       437.0104022664443        472.5458956407639        508.05595969851765       543.3434535508063
80.4394549019947          338.45046935117483       369.1881247259723        402.9765418850748        438.2589256789182        474.0741174605395        509.84248349429384       545.369853376029
81.14051709669656         338.7383309016373        369.8028800194965        403.91610993261617       439.50744909139206       475.6023392803151        511.62900729007004       547.3962532012516
81.84157929139839         339.015642340571         370.38324021024863       404.7936470644755        440.6880754640109        477.0668989779053        513.3634096273017        549.4014944382967
82.54264148610024         339.2929537795046        370.9636004010008        405.6711841963349        441.86870183662984       478.5314586754955        515.0978119645333        551.4067356753418
83.24370368080208         339.5702652184383        371.5439605917529        406.54872132819423       443.0493282092487        479.9960183730857        516.832214301765         553.4119769123869
83.94476587550392         339.8475766573719        372.1243207825051        407.4262584600536        444.22995458186756       481.46057807067587       518.5666166389967        555.417218149432
84.64582807020577         340.15875045770014       372.7844153959823        408.44211068358163       445.5861427568637        483.13944387133967       520.5428801844857        557.6550854501504
85.34689026490761         340.4699242580284        373.44451000945946       409.45796290710973       446.94233093185983       484.81830967200347       522.5191437299746        559.8929527508687
86.04795245960948         340.78109805835663       374.1046046229367        410.4738151306378        448.298519106856         486.49717547266727       524.4954072754635        562.1308200515871
86.74901465431131         341.09227185868485       374.7646992364139        411.4896673541658        449.65470728185215       488.17604127333107       526.4716708209526        564.3686873523054
87.45007684901319         341.3727234446329        375.34383659091          412.3600296698156        450.7920211933853        489.5593413994349        528.0870455760376        566.207777695825
88.15113904371502         341.653175030581         375.922973945406         413.2303919854654        451.9293351049185        490.94264152553876       529.7024203311224        568.0468680393446
88.85220123841687         341.93362661652907       376.502111299902         414.10075430111516       453.06664901645166       492.3259416516426        531.3177950862073        569.8859583828644
89.55326343311873         342.21407820247714       377.0812486543981        414.97111661676496       454.20396292798483       493.70924177774646       532.9331698412923        571.725048726384
90.25432562782056         342.5454932679304        377.7656735162158        415.9946928666612        455.5447519052619        495.3426273421316        534.832258483554         573.8635881737849
90.95538782252241         342.8769083333836        378.45009837803366       417.0182691165574        456.8855408825389        496.97601290651676       536.7313471258158        576.002127621186
91.65645001722424         343.2083233988368        379.1345232398514        418.04184536645363       458.22632985981596       498.6093984709019        538.6304357680775        578.1406670685869
92.35751221192609         343.53973846429005       379.81894810166915       419.06542161634985       459.567118837093         500.24278403528706       540.5295244103393        580.279206515988
93.05857440662793         343.7881134109237        380.3382254763144        419.84829832735034       460.59608325043934       501.4980730276966        542.0001696294196        581.9555893180676
93.75963660132979         344.03648835755735       380.8575028509596        420.6311750383509        461.6250476637856        502.7533620201061        543.4708148484998        583.6319721201471
94.46069879603164         344.28486330419105       381.37678022560476       421.41405174935136       462.65401207713194       504.0086510125156        544.94146006758          585.3083549222267
95.16176099073348         344.5332382508247        381.89605760025          422.19692846035184       463.68297649047827       505.26394000492513       546.4121052866603        586.9847377243063
95.86282318543533         344.9319841387801        382.7221893297539        423.4316096396211        465.3054434005055        507.2653657520232        548.7858466347641        589.7119630807723
96.5638853801372          345.33073002673547       383.5483210592579        424.6662908188905        466.92791031053275       509.26679149912127       551.1595879828678        592.4391884372383
97.26494757483903         345.72947591469085       384.3744527887618        425.90097199815983       468.55037722055994       511.2682172462193        553.5333293309717        595.1664137937041
97.96600976954088         346.12822180264624       385.2005845182657        427.13565317742916       470.1728441305872        513.2696429933173        555.9070706790754        597.8936391501701
98.66707196424271         346.37760819719347       385.7267018069598        427.9377035210797        471.24240769494975       514.5882920309882        557.4662257926416        599.6736200285711
99.36813415894454         346.62699459174075       386.2528190956539        428.73975386473023       472.3119712593123        515.9069410686591        559.0253809062076        601.453600906972
100.0691963536464         346.876380986288         386.77893638434796       429.5418042083807        473.3815348236749        517.22559010633          560.5845360197736        603.2335817853731
100.77025854834822        347.1257673808352        387.30505367304204       430.34385455203125       474.45109838803745       518.5442391440008        562.1436911333396        605.0135626637741
101.47132074305009        347.43734768810054       387.9495234366598        431.30667432207923       475.72764932203427       520.1273201411615        564.0151220469976        607.1611684332862
102.17238293775193        347.7489279953658        388.5939932002775        432.26949409212716       477.004200256031         521.7104011383221        565.8865529606555        609.3087742027983
102.87344513245378        348.0605083026311        389.2384629638953        433.23231386217515       478.28075119002784       523.2934821354828        567.7579838743136        611.4563799723104
103.57450732715563        348.3720886098964        389.88293272751304       434.1951336322231        479.55730212402466       524.8765631326435        569.6294147879715        613.6039857418225
104.27556952185749        348.6844029845325        390.5342974717367        435.1721773122905        480.8447473100639        526.4620465095575        571.5045127802431        615.7441559849336
104.97663171655934        348.99671735916843       391.1856622159603        436.149220992358         482.13219249610324       528.0475298864716        573.3796107725148        617.8843262280448
105.6776939112612         349.3090317338045        391.83702696018395       437.1262646724254        483.41963768214254       529.6330132633857        575.2547087647863        620.024496471156