% Model:              Cav_Hex_Unif_flux_v5.1.2 - Wall Distn.mph
% Version:            COMSOL 5.5.0.359
% Date:               Nov 29 2021, 10:22
% Table:              Evaluation Group 1 - 
% P_to_m (kJ/kg)         Q_abs (W)                Q_BHS (W)                T_g_in (K)               T_g_out (K)              Q_rad_loss (W)           Q_rad_loss_int (W)       Q_rad_loss_front (W)     Q_abs_out (W)            Q_abs_in (W)             BHS_front (W)            BHS_interior (W)         BHS_int(x-walls) (W)     BHS_int(y-walls) (W)
100                      1.734632146831116        1.8994981165438252       325.9595652846557        402.1135653759145        0.009333979058103051     0.002553875843881989     0.00678010321422108      2.454618994435103        -0.562373647492114       1.3180731067010705       0.5814250098427547       0.1949091877463941       0.38651582209636065
200                      1.793132406766686        1.8994981165438252       330.7763288439947        484.808978301792         0.018281377955229484     0.005018571778394387     0.013262806176835137     2.1550160173466653       -0.2797912444789854      1.3180731067010705       0.5814250098427547       0.1949091877463941       0.38651582209636065
300                      1.8245814252871246       1.8994981165438252       336.3991185775624        566.1523368166468        0.03068124828839128      0.008439941714355028     0.022241306574036265     2.0459981743851006       -0.18635518533606021     1.3180731067010705       0.5814250098427547       0.1949091877463941       0.38651582209636065
400                      1.8449879365615454       1.8994981165438252       342.6407373657907        645.4046525131182        0.04731157946520549      0.013034624819459224     0.03427695464574633      1.9798508751438022       -0.13972112681694757     1.3180731067010705       0.5814250098427547       0.1949091877463941       0.38651582209636065
500                      1.8561241980538417       1.8994981165438252       349.3635399761735        721.9006905225576        0.0685498358459099       0.01890980019552308      0.04964003565038693      1.9277968848229954       -0.11176013960223849     1.3180731067010705       0.5814250098427547       0.1949091877463941       0.38651582209636065
600                      1.8581344208000339       1.8994981165438252       356.3324054629038        794.9801890506986        0.0944713288591872       0.02608964009829077      0.06838168876089623      1.8803020072763141       -0.09312585899980497     1.3180731067010705       0.5814250098427547       0.1949091877463941       0.38651582209636065
700                      1.8507699902487529       1.8994981165438252       363.34936249323215       864.0190065339028        0.12484895913362265      0.034514674995840475     0.0903342841377823       1.8334047100296502       -0.07981820437304232     1.3180731067010705       0.5814250098427547       0.1949091877463941       0.38651582209636065
