% Model:              Cav_Hex_Unif_flux_v5.1 - Base Case (v01).mph
% Version:            COMSOL 5.5.0.359
% Date:               Mar 19 2022, 13:50
% Dimension:          1
% Nodes:              1285
% Expressions:        1
% Description:        Line graph
% x                       Height
0                         317.4427542806947
1.9246843256086863        317.68008377315016
3.8493686512173726        317.91741326560566
5.774052976826059         318.1547427580611
7.698737302434745         318.39207225051655
9.623421628043433         318.4032324042046
11.54810595365212         318.4143925578926
13.472790279260808        318.4255527115807
15.397474604869494        318.4367128652687
17.3205706695317          318.325478393471
19.243666734193905        318.2142439216732
21.166762798856116        318.10300944987546
23.08985886351832         317.99177497807773
25.010550458133114        317.8216795639772
26.93124205274791         317.6515841498767
28.851933647362703        317.4814887357762
30.772625241977494        317.3113933216757
32.69331683659229         317.2075117500566
34.61400843120708         317.1036301784374
36.53470002582188         316.99974860681823
38.45539162043667         316.8958670351991
40.37570979503599         316.8041774508909
42.296027969635304        316.7124878665827
44.21634614423462         316.6207982822745
46.13666431883394         316.5291086979663
48.057839850723106        316.48985183500355
49.979015382612275        316.4505949720408
51.900190914501444        316.4113381090781
53.82136644639061         316.37208124611533
55.74362232526239         316.3561908478871
57.665878204134174        316.3403004496589
59.58813408300595         316.32441005143073
61.510389961877735        316.30851965320255
63.43264584074951         316.31340163854793
65.35490171962128         316.3182836238933
67.27715759849306         316.3231656092387
69.19941347736484         316.32804759458406
71.12275327454866         316.36241535275536
73.04609307173249         316.39678311092666
74.9694328689163          316.43115086909796
76.89277266610011         316.46551862726926
78.81452554187119         316.507290030813
80.73627841764228         316.5490614343568
82.65803129341337         316.5908328379006
84.57978416918445         316.63260424144437
86.50153704495554         316.67420878826425
88.42328992072663         316.71581333508414
90.34504279649772         316.7574178819041
92.26679567226883         316.79902242872396
94.18615173408296         316.835296743752
96.10550779589711         316.87157105878
98.02486385771122         316.90784537380796
99.94421991952537         316.94411968883594
101.86353459875686        317.0226063552418
103.78284927798833        317.10109302164767
105.70216395721982        317.1795796880536
107.6214786364513         317.25806635445946
109.54075526890918        317.3114852565522
111.46003190136705        317.364904158645
113.37930853382494        317.41832306073775
115.29858516628282        317.4717419628305
117.21782669750216        317.60406906166645
119.13706822872153        317.7363961605024
121.05630975994089        317.86872325933837
122.97555129116024        318.0010503581743
124.89476082742529        318.114752805785
126.81397036369036        318.2284552533956
128.7331798999554         318.3421577010063
130.65238943622046        318.4558601486169
132.571823833667          318.5564447289498
134.49125823111356        318.6570293092828
136.41069262856013        318.75761388961575
138.33012702600666        318.85819846994866
140.24956142345323        319.0406359896741
142.16899582089982        319.22307350939957
144.08843021834636        319.40551102912497
146.00786461579293        319.5879485488504
147.92837381791696        319.7471396942253
149.84888302004097        319.9063308396002
151.769392222165          320.0655219849751
153.68990142428905        320.22471313035
155.61041062641303        320.32708315594834
157.53091982853707        320.4294531815467
159.4514290306611         320.531823207145
161.37193823278508        320.63419323274337
163.29326874238143        320.8025281789437
165.21459925197775        320.9708631251441
167.135929761574          321.1391980713445
169.05726027117035        321.30753301754487
170.98078885870362        321.4867175831671
172.90431744623692        321.66590214878937
174.82784603377021        321.84508671441165
176.75137462130348        322.0242712800339
178.678035116536          322.1759738752247
180.6046956117685         322.3276764704155
182.53135610700102        322.4793790656063
184.45801660223353        322.6310816607971
186.3838369715894         322.83767503495665
188.3096573409453         323.0442684091161
190.2354777103012         323.2508617832756
192.16129807965712        323.4574551574351
194.08148706063193        323.63447710967915
196.00167604160674        323.8114990619232
197.92186502258156        323.98852101416725
199.84205400355637        324.1655429664113
201.76224298453116        324.32669279051584
203.6824319655059         324.4878426146204
205.6026209464807         324.648992438725
207.52280992745548        324.8101422628295
209.44463620802156        324.9474645926192
211.36646248858764        325.0847869224089
213.28828876915372        325.2221092521986
215.21011504971986        325.3594315819883
217.1322227042848         325.5190543343388
219.0543303588498         325.67867708668933
220.97643801341476        325.83829983903985
222.89854566797973        325.99792259139036
224.8209460713076         326.1496091233106
226.74334647463547        326.3012956552308
228.6657468779634         326.45298218715095
230.58814728129124        326.6046687190712
232.51089718151434        326.872108143916
234.4336470817374         327.1395475687609
236.35639698196047        327.40698699360576
238.27914688218357        327.6744264184506
240.20189678240666        327.91555454685226
242.1246466826298         328.1566826752539
244.04739658285288        328.3978108036555
245.97014648307598        328.63893893205716
247.89420520480115        328.820975686221
249.8182639265263         329.0030124403849
251.74232264825147        329.1850491945488
253.66638136997665        329.36708594871266
255.58949300470906        329.50638288806687
257.51260463944146        329.6456798274211
259.43571627417384        329.7849767667753
261.3588279089062         329.9242737061295
263.28143119827996        330.2128244156344
265.2040344876537         330.50137512513925
267.1266377770274         330.7899258346441
269.0492410664011         331.078476544149
270.9718443557748         331.2972531211249
272.89444764514855        331.51602969810085
274.81705093452223        331.7348062750768
276.73965422389597        331.9535828520527
278.66208725470517        332.23648427213374
280.5845202855143         332.51938569221477
282.5069533163235         332.80228711229586
284.4293863471327         333.0851885323769
286.35563075714634        333.35030699861534
288.28187516715997        333.6154254648538
290.2081195771736         333.88054393109223
292.13436398718716        334.1456623973307
294.06104948720696        334.44889048410937
295.98773498722676        334.752118570888
297.9144204872466         335.05534665766663
299.84110598726636        335.3585747444453
301.7677914872862         335.64354846417257
303.694476987306          335.9285221838998
305.6211624873258         336.21349590362706
307.5478479873456         336.4984696233543
309.47305578420816        336.7256278610938
311.3982635810707         336.95278609883337
313.32347137793323        337.1799443365729
315.2486791747957         337.4071025743124
317.17182414237703        337.61674861251464
319.09496910995836        337.8263946507169
321.0181140775398         338.0360406889191
322.9412590451211         338.2456867271214
324.8644040127025         338.42789681326605
326.7875489802838         338.61010689941077
328.7106939478652         338.79231698555543
330.6338389154466         338.9745270717001
332.5593621346815         339.17363403540946
334.48488535391647        339.37274099911883
336.4104085731514         339.5718479628282
338.33593179238636        339.77095492653757
340.26145501162136        339.96663664687105
342.18697823085637        340.16231836720453
344.1125014500914         340.35800008753796
346.0380246693264         340.55368180787144
347.9648823971274         340.7262747815711
349.8917401249284         340.89886775527077
351.8185978527294         341.07146072897046
353.7454555805304         341.24405370267016
355.67231330833135        341.45372526623026
357.59917103613236        341.6633968297904
359.5260287639334         341.8730683933505
361.45288649173443        342.0827399569106
363.38098427789964        342.3571224394985
365.3090820640649         342.63150492208644
367.2371798502302         342.90588740467433
369.16527763639544        343.1802698872623
371.0929789949705         343.3901007387502
373.02068035354563        343.5999315902381
374.94838171212064        343.809762441726
376.87608307069576        344.0195932932139
378.80378442927076        344.25279989004684
380.7314857878458         344.4860064868798
382.6591871464209         344.71921308371265
384.5868885049959         344.9524196805456
386.5135274418714         345.1337628320264
388.4401663787469         345.3151059835072
390.3668053156224         345.496449134988
392.2934442524979         345.6777922864688
394.2200831893734         345.83676991257266
396.14672212624896        345.9957475386765
398.07336106312454        346.1547251647803
400                       346.3137027908842
0                         318.0633067191167
1.7529471558615355        318.12225300007583
3.505894311723071         318.181199281035
5.258841467584607         318.24014556199415
7.011788623446142         318.2990918429533
8.764735779307676         318.28842434835167
10.517682935169214        318.2777568537501
12.270630091030748        318.2670893591485
14.023577246892284        318.25642186454684
15.882437362906572        318.0049082657213
17.741297478920856        317.7533946668958
19.600157594935148        317.50188106807025
21.459017710949436        317.25036746924474
23.31787782696372         316.9804093195454
25.176737942978008        316.710451169846
27.0355980589923          316.4404930201467
28.894458175006584        316.17053487044734
30.754301020930402        316.1288314558668
32.614143866854214        316.08712804128623
34.47398671277802         316.04542462670565
36.33382955870184         316.00372121212513
38.19367240462565         316.1788973398245
40.05351525054947         316.3540734675239
41.91335809647329         316.52924959522335
43.7732009423971          316.70442572292274
45.63304378832091         317.1101927706127
47.49288663424473         317.51595981830263
49.35272948016854         317.9217268659926
51.212572326092356        318.32749391368253
53.07241517201618         319.01800106354443
54.93225801793999         319.70850821340633
56.79210086386381         320.39901536326823
58.65194370978763         321.08952251313013
60.511786555711446        321.6970640178661
62.37162940163526         322.3046055226021
64.23147224755907         322.9121470273381
66.09131509348289         323.5196885320741
67.9511579394067          324.3107818340984
69.81100078533053         325.1018751361227
71.67084363125436         325.892968438147
73.53068647717816         326.68406174017133
75.39052932310199         327.5209929545239
77.25037216902581         328.3579241688764
79.1102150149496          329.19485538322897
80.97005786087342         330.0317865975815
82.82990070679725         331.0127896945729
84.68974355272105         331.99379279156426
86.54958639864488         332.97479588855566
88.4094292445687          333.95579898554706
90.2692720904925          334.9111953162297
92.12911493641631         335.8665916469123
93.98895778234012         336.82198797759486
95.84880062826394         337.7773843082775
97.70864347418775         338.83505750281074
99.56848632011156         339.89273069734406
101.4283291660354         340.95040389187733
103.28817201195919        342.0080770864106
105.148014857883          343.0042884357229
107.0078577038068         344.00049978503523
108.8677005497306         344.9967111343476
110.72754339565441        345.9929224836599
112.58738624157824        347.0822481814106
114.44722908750207        348.1715738791613
116.3070719334259         349.260899576912
118.16691477934974        350.35022527466265
120.02675762527356        351.21481832531447
121.88660047119737        352.0794113759662
123.74644331712118        352.944004426618
125.606286163045          353.80859747726976
127.4661290089688         354.7907522202486
129.32597185489263        355.7729069632274
131.18581470081645        356.7550617062062
133.04565754674024        357.73721644918504
134.90550039266407        359.0041593119094
136.7653432385879         360.2711021746338
138.62518608451168        361.5380450373582
140.4850289304355         362.80498790008255
142.34487177635933        364.10041458097817
144.20471462228312        365.3958412618738
146.06455746820697        366.6912679427694
147.92440031413076        367.986694623665
149.78424316005456        369.06575469450456
151.6440860059784         370.1448147653441
153.5039288519022         371.22387483618365
155.363771697826          372.3029349070232
157.22361454374982        373.7279998880582
159.0834573896736         375.15306486909327
160.94330023559743        376.57812985012833
162.80314308152126        378.00319483116334
164.66298592744505        379.1569562181214
166.52282877336884        380.31071760507956
168.38267161929267        381.4644789920377
170.24251446521646        382.6182403789958
172.10235731114028        383.8639684143372
173.9622001570641         385.1096964496786
175.8220430029879         386.35542448502
177.68188584891172        387.60115252036144
179.54172869483554        389.22562409748997
181.40157154075936        390.8500956746185
183.26141438668316        392.47456725174703
185.12125723260698        394.09903882887556
186.9811000785308         396.064019599339
188.84094292445462        398.0290003698025
190.70078577037845        399.9939811402659
192.56062861630227        401.95896191072933
194.42047146222606        403.0280257348202
196.28031430814988        404.09708955891097
198.14015715407368        405.1661533830018
199.9999999999975         406.23521720709266
201.8598428459213         407.2933061470561
203.71968569184511        408.3513950870197
205.57952853776894        409.40948402698314
207.43937138369273        410.46757296694665
209.29921422961655        411.45320454384876
211.1590570755404         412.4388361207508
213.0188999214642         413.4244676976529
214.87874276738802        414.410099274555
216.73858561331184        415.35032932508204
218.59842845923563        416.2905593756091
220.45827130515943        417.2307894261362
222.31811415108325        418.1710194766632
224.17795699700704        419.1427711842329
226.03779984293087        420.1145228918027
227.8976426888547         421.0862745993724
229.75748553477848        422.05802630694217
231.61732838070228        423.21435469682467
233.4771712266261         424.3706830867071
235.33701407254992        425.52701147658956
237.1968569184737         426.683339866472
239.05669976439754        427.67631214494446
240.91654261032136        428.6692844234169
242.77638545624512        429.6622567018894
244.63622830216897        430.65522898036187
246.4960711480928         431.6289955921615
248.35591399401665        432.6027622039612
250.21575683994052        433.57652881576087
252.07559968586435        434.5502954275605
253.9354425317881         435.39548267302064
255.7952853777119         436.24066991848076
257.65512822363576        437.08585716394083
259.5149710695595         437.93104440940095
261.37481391548334        438.6064880444306
263.2346567614071         439.2819316794603
265.09449960733093        439.9573753144899
266.95434245325475        440.63281894951956
268.8141852991786         441.3848607134807
270.6740281451024         442.1369024774418
272.5338709910262         442.8889442414029
274.39371383695           443.640986005364
276.2535566828738         444.3708531253433
278.11339952879763        445.1007202453226
279.9732423747215         445.8305873653019
281.83308522064533        446.5604544852812
283.69292806656915        447.27979720842615
285.552770912493          447.9991399315712
287.4126137584168         448.7184826547162
289.2724566043406         449.4378253778612
291.13229945026444        450.1814853088831
292.9921422961882         450.92514523990496
294.85198514211197        451.6688051709268
296.71182798803574        452.4124651019487
298.5716708339595         453.1647886312325
300.4315136798834         453.91711216051635
302.2913565258072         454.66943568980014
304.15119937173097        455.421759219084
306.0110422176548         456.20950781420737
307.8708850635786         456.9972564093307
309.7307279095025         457.7850050044541
311.59057075542637        458.5727535995775
313.4504136013502         459.3039377232315
315.31025644727396        460.03512184688554
317.1700992931977         460.7663059705396
319.0299421391215         461.4974900941936
320.8897849850453         462.0259621971064
322.7496278309692         462.55443430001924
324.60947067689295        463.0829064029321
326.4693135228168         463.6113785058449
328.3291563687406         464.2171127104838
330.18899921466436        464.8228469151226
332.04884206058813        465.4285811197615
333.908684906512          466.0343153244003
335.7685277524358         466.47768443111505
337.6283705983596         466.9210535378297
339.48821344428336        467.36442264454445
341.3480562902071         467.8077917512591
343.207899136131          468.32134988384485
345.0677419820548         468.83490801643063
346.92758482797865        469.3484661490164
348.78742767390247        469.86202428160215
350.64727051982624        470.3550470290112
352.50711336575           470.8480697764202
354.3669562116739         471.3410925238292
356.22679905759765        471.83411527123826
358.0795244979144         472.40156767966334
359.93224993823117        472.96902008808837
361.7849753785479         473.5364724965134
363.6377008188647         474.1039249049385
365.48686755637783        474.5056648528423
367.336034293891          474.9074048007461
369.1852010314041         475.30914474864994
371.0343677689173         475.71088469655376
372.85870935832406        476.0430291641917
374.6830509477309         476.3751736318296
376.5073925371377         476.7073180994676
378.33173412654446        477.03946256710555
380.1560757159512         477.38630293758575
381.98041730535795        477.733143308066
383.8047588947647         478.0799836785462
385.62910048417143        478.42682404902644
387.42861692547183        478.7868134109808
389.2281333667722         479.1468027729352
391.0276498080725         479.5067921348896
392.8271662493729         479.866781496844
394.6203746870297         479.99168738867525
396.41358312468645        480.11659328050644
398.2067915623433         480.2414991723376
400                       480.3664050641688
0                         318.0241668347105
1.5329726927180851        318.03071247426794
3.0659453854361702        318.03725811382543
4.598918078154256         318.0438037533829
6.1318907708723405        318.05034939294035
7.664863463590428         317.9627736565001
9.197836156308512         317.87519792005975
10.730808849026598        317.7876221836194
12.263781541744684        317.70004644717915
13.803842387141556        317.2951655184752
15.343903232538425        316.8902845897712
16.883964077935296        316.4854036610672
18.424024923332166        316.08052273236325
19.97905662639725         316.0412291484831
21.53408832946233         316.001935564603
23.089120032527415        315.9626419807229
24.644151735592498        315.92334839684275
26.19918343865758         316.03508396600824
27.754215141722668        316.1468195351738
29.30924684478775         316.2585551043393
30.86427854785283         316.3702906735048
32.430350042780105        316.7257614792842
33.99642153770737         317.0812322850635
35.56249303263465         317.4367030908428
37.12856452756191         317.7921738966221
38.694636022489185        318.9935186550996
40.26070751741645         320.1948634135771
41.82677901234373         321.3962081720545
43.39285050727099         322.597552930532
44.95892200219827         323.5208292168061
46.524993497125536        324.4441055030801
48.09106499205281         325.36738178935417
49.65713648698007         326.29065807562824
51.22320798190734         327.5637064815661
52.789279476834615        328.8367548875039
54.35535097176189         330.1098032934417
55.92142246668916         331.38285169937956
57.48749396161642         332.49167325769713
59.0535654565437          333.60049481601476
60.619636951470966        334.7093163743324
62.185708446398245        335.81813793264996
63.75177994132551         337.3048338028912
65.31785143625278         338.79152967313246
66.88392293118005         340.27822554337365
68.44999442610731         341.7649214136149
70.01606592103458         343.8762237811301
71.58213741596187         345.9875261486452
73.14820891088914         348.0988285161604
74.7142804058164          350.21013088367556
76.28035190074367         351.482067921237
77.84642339567094         352.7540049587983
79.4124948905982          354.0259419963597
80.97856638552545         355.29787903392105
82.54463788045273         356.96455932729674
84.11070937538            358.63123962067243
85.67678087030727         360.2979199140482
87.24285236523453         361.96460020742387
88.8089238601618          363.32709975643627
90.37499535508908         364.6895993054487
91.94106685001636         366.0520988544611
93.50713834494361         367.4145984034735
95.07320983987088         369.57120513155206
96.63928133479816         371.7278118596306
98.20535282972543         373.8844185877091
99.77142432465268         376.04102531578764
101.33749581957996        378.0211883239195
102.90356731450723        380.0013513320514
104.4696388094345         381.98151434018325
106.03571030436176        383.9616773483151
107.60178179928904        385.18959597265666
109.16785329421633        386.4175145969982
110.7339247891436         387.6454332213398
112.29999628407087        388.8733518456813
113.86606777899814        390.68174755711345
115.43213927392542        392.4901432685456
116.99821076885269        394.29853897997765
118.56428226377994        396.1069346914098
120.13035375870722        398.1372717593306
121.6964252536345         400.16760882725134
123.26249674856177        402.19794589517215
124.82856824348903        404.22828296309297
126.3946397384163         405.87050118746475
127.96071123334357        407.51271941183666
129.52678272827083        409.15493763620844
131.09285422319812        410.7971558605803
132.65892571812537        413.159988286042
134.22499721305263        415.52282071150364
135.79106870797992        417.88565313696535
137.3571402029072         420.24848556242705
138.9232116978345         421.8779077259813
140.48928319276175        423.5073298895355
142.055354687689          425.13675205308977
143.6214261826163         426.766174216644
145.18749767754355        427.7641340262267
146.75356917247083        428.7620938358094
148.31964066739812        429.76005364539213
149.88571216232538        430.75801345497484
151.45178365725263        432.7800912595341
153.0178551521799         434.8021690640934
154.58392664710712        436.8242468686527
156.1499981420344         438.846324673212
157.71606963696166        440.75952346069755
159.28214113188892        442.67272224818305
160.8482126268162         444.58592103566855
162.4142841217435         446.4991198231541
163.98035561667078        448.2877669681261
165.54642711159804        450.07641411309805
167.1124986065253         451.86506125807006
168.67857010145258        453.65370840304206
170.24464159637984        455.30187778803383
171.81071309130712        456.9500471730256
173.37678458623444        458.5982165580173
174.9428560811617         460.2463859430091
176.50892757608898        461.5934778150596
178.07499907101626        462.9405696871101
179.64107056594352        464.2876615591606
181.2071420608708         465.6347534312111
182.77321355579807        466.63389586142637
184.33928505072532        467.6330382916416
185.9053565456526         468.6321807218568
187.47142804057984        469.63132315207207
189.0374995355071         470.41480101230195
190.60357103043435        471.1982788725318
192.1696425253616         471.98175673276165
193.7357140202889         472.76523459299153
195.30178551521615        473.48254752753525
196.8678570101434         474.19986046207885
198.43392850507072        474.91717339662256
199.99999999999798        475.6344863311662
201.56607149492527        476.66812285347123
203.13214298985255        477.70175937577625
204.6982144847798         478.73539589808126
206.26428597970713        479.7690324203863
207.83035747463438        480.70690287280553
209.39642896956164        481.64477332522483
210.96250046448893        482.5826437776441
212.52857195941618        483.5205142300633
214.0946434543434         484.7207237058074
215.6607149492707         485.9209331815515
217.22678644419798        487.12114265729554
218.79285793912524        488.3213521330396
220.3589294340525         489.4724240956701
221.92500092897973        490.62349605830053
223.49107242390699        491.774568020931
225.05714391883424        492.92563998356144
226.6232154137615         494.14874511715584
228.18928690868879        495.3718502507503
229.75535840361607        496.59495538434476
231.32142989854336        497.8180605179392
232.88750139347061        499.03139099322436
234.45357288839784        500.2447214685094
236.01964438332513        501.45805194379454
237.5857158782524         502.67138241907963
239.15178737317967        503.3631556372495
240.71785886810693        504.05492885541946
242.2839303630342         504.7467020735894
243.85000185796147        505.4384752917593
245.41607335288873        506.2166422244666
246.982144847816          506.9948091571739
248.54821634274327        507.77297608988124
250.11428783767053        508.5511430225885
251.6803593325978         509.44764915889095
253.24643082752507        510.34415529519333
254.81250232245233        511.24066143149577
256.3785738173796         512.1371675677982
257.9446453123069         512.692367619314
259.51071680723413        513.2475676708299
261.07678830216145        513.8027677223457
262.64285979708876        514.3579677738616
264.208931292016          515.267182977125
265.7750027869432         516.1763981803886
267.3410742818705         517.085613383652
268.90714577679773        517.9948285869154
270.47321727172505        519.0236126005219
272.03928876665225        520.0523966141284
273.60536026157945        521.0811806277349
275.1714317565067         522.1099646413413
276.73750325143396        522.6345629140244
278.3035747463612         523.1591611867075
279.86964624128854        523.6837594593904
281.43571773621585        524.2083577320735
283.0017892311431         524.716021701237
284.56786072607036        525.2236856704004
286.1339322209976         525.7313496395639
287.70000371592494        526.2390136087273
289.2660752108522         527.0646728518817
290.83214670577945        527.8903320950362
292.3982182007067         528.7159913381906
293.96428969563397        529.541650581345
295.5303611905613         530.2890126645411
297.09643268548854        531.0363747477371
298.6625041804158         531.7837368309331
300.22857567534305        532.5310989141292
301.7946471702703         533.273755283635
303.36071866519757        534.0164116531406
304.9267901601249         534.7590680226463
306.49286165505214        535.501724392152
308.0589331499794         536.2615355031226
309.6250046449067         537.021346614093
311.19107613983397        537.7811577250634
312.7571476347613         538.5409688360339
314.32321912968854        539.1277419671728
315.8892906246158         539.7145150983117
317.45536211954305        540.3012882294505
319.0214336144703         540.8880613605894
320.5875051093976         541.4752689821601
322.1535766043249         542.0624766037306
323.7196480992521         542.6496842253011
325.28571959417934        543.2368918468717
326.8517910891066         543.9183219035071
328.4178625840339         544.5997519601426
329.9839340789612         545.281182016778
331.5500055738885         545.9626120734134
333.11607706881574        546.4858546709878
334.682148563743          547.0090972685621
336.2482200586702         547.5323398661365
337.8142915535975         548.0555824637107
339.38036304852477        548.5327531779578
340.9464345434521         549.009923892205
342.51250603837934        549.4870946064522
344.0785775333066         549.9642653206993
345.64464902823386        550.5857714196159
347.2107205231611         551.2072775185325
348.7767920180883         551.8287836174492
350.3428635130156         552.4502897163658
351.90893500794283        552.8783532207881
353.4750065028701         553.3064167252105
355.0410779977974         553.7344802296328
356.6071494927247         554.1625437340551
358.173220987652          554.4932951980757
359.7392924825793         554.8240466620963
361.3053639775066         555.1547981261169
362.8714354724339         555.4855495901375
364.43706370655707        555.9241695319764
366.0026919406801         556.3627894738154
367.5683201748032         556.8014094156542
369.1339484089263         557.2400293574932
370.7257280352481         557.5714680305568
372.31750766156983        557.9029067036206
373.90928728789163        558.2343453766842
375.50106691421337        558.5657840497479
377.0609140614182         559.0165198617735
378.6207612086231         559.4672556737991
380.180608355828          559.9179914858246