% Model:              Cav_Hex_Unif_flux_v5.1 - Base Case (v01).mph
% Version:            COMSOL 5.5.0.359
% Date:               Mar 19 2022, 13:49
% Dimension:          1
% Nodes:              1289
% Expressions:        1
% Description:        Line graph
% x                       Height
0                         316.84246931796423
0.9619525236422922        317.376173582604
1.9239050472845844        317.9098778472438
2.885857570926877         318.44358211188364
3.847810094569169         318.9772863765234
4.809537697358615         319.01853103713154
5.771265300148062         319.05977569773967
6.732992902937507         319.1010203583478
7.694720505726953         319.1422650189559
8.656062224180369         318.7406415563254
9.617403942633787         318.3390180936949
10.578745661087204        317.93739463106436
11.540087379540621        317.5357711684338
12.501429097994038        316.996383625372
13.462770816447454        316.4569960823102
14.424112534900868        315.91760853924836
15.385454253354284        315.37822099618654
16.346410087471675        315.13381323969315
17.30736592158906         314.88940548319977
18.26832175570645         314.6449977267063
19.229277589823838        314.40058997021293
20.18910735321523         314.1754029156309
21.14893711660663         313.95021586104883
22.108766879998022        313.72502880646675
23.06859664338942         313.4998417518847
24.02906099801548         313.5241717852223
24.989525352641543        313.5485018185599
25.949989707267605        313.5728318518975
26.910454061893667        313.5971618852351
27.87091841651973         313.6696113791735
28.831382771145794        313.7420608731118
29.79184712577186         313.81451036705016
30.75231148039792         313.88695986098855
31.713455231952278        314.1084801432248
32.67459898350663         314.3300004254611
33.63574273506098         314.5515207076974
34.59688648661534         314.7730409899337
35.55864790847352         315.22130450839273
36.52040933033169         315.6695680268517
37.48217075218986         316.11783154531076
38.44393217404804         316.56609506376975
39.40498489203398         316.92663645101
40.366037610019916        317.2871778382503
41.32709032800585         317.6477192254905
42.288143045991795        318.00826061273074
43.24919576397773         318.2670470317352
44.210248481963674        318.5258334507397
45.17130119994961         318.7846198697441
46.132353917935546        319.0434062887486
47.09204358429198         319.3796110726046
48.051733250648404        319.71581585646055
49.01142291700482         320.0520206403165
49.971112583361254        320.3882254241725
50.93078425657877         321.28756184378165
51.89045592979628         322.18689826339084
52.8501276030138          323.08623468300004
53.80979927623132         323.98557110260924
54.76945440687597         324.58104558308435
55.729109537520635        325.1765200635595
56.68876466816529         325.77199454403467
57.648419798809954        326.3674690245098
58.60793791510604         327.6552431869858
59.56745603140215         328.9430173494618
60.52697414769824         330.23079151193787
61.486492263994336        331.5185656744139
62.44599512407861         332.3498370413165
63.40549798416287         333.18110840821913
64.36500084424713         334.01237977512176
65.3245037043314          334.8436511420244
66.2842341268368          335.64710106518675
67.24396454934218         336.4505509883491
68.20369497184758         337.25400091151147
69.16342539435297         338.05745083467383
70.12315581685836         339.1983113687957
71.08288623936373         340.33917190291754
72.04261666186912         341.4800324370394
73.00234708437452         342.62089297116125
73.96269627063229         343.51500555032834
74.92304545689007         344.4091181294955
75.88339464314784         345.30323070866257
76.84374382940561         346.1973432878297
77.80409301566338         346.90500827866185
78.76444220192114         347.61267326949405
79.72479138817891         348.3203382603262
80.68514057443669         349.02800325115834
81.64591697420693         350.24296314090475
82.60669337397718         351.45792303065116
83.56746977374743         352.67288292039757
84.52824617351767         353.887842810144
85.49036443658845         355.143121033072
86.45248269965921         356.39839925599995
87.41460096272998         357.65367747892793
88.37671922580074         358.9089557018559
89.33883748887152         359.8783370521481
90.3009557519423          360.8477184024403
91.26307401501309         361.8170997527325
92.22519227808385         362.7864811030247
93.18776645856425         363.9730904886311
94.15034063904466         365.15969987423745
95.11291481952506         366.3463092598438
96.07548900000546         367.5329186454502
97.03663834509645         368.59263232446216
97.99778769018742         369.65234600347407
98.9589370352784          370.71205968248603
99.92008638036938         371.77177336149794
100.88103656981592        372.73955481457153
101.84198675926245        373.7073362676452
102.80293694870899        374.67511772071884
103.76388713815552        375.64289917379244
104.72483732760207        376.40343046991427
105.68578751704862        377.1639617660361
106.64673770649519        377.9244930621579
107.60768789594174        378.68502435827975
108.56873623406798        379.3692444124602
109.52978457219423        380.05346446664066
110.49083291032048        380.7376845208212
111.45188124844674        381.42190457500163
112.412929586573          382.3390303109605
113.37397792469926        383.2561560469194
114.33502626282552        384.17328178287823
115.29607460095178        385.09040751883714
116.25731232985189        386.50943864700105
117.218550058752          387.9284697751649
118.17978778765212        389.3475009033288
119.14102551655222        390.7665320314927
120.10259428804923        391.87529436842385
121.06416305954623        392.98405670535493
122.02573183104325        394.092819042286
122.98730060254026        395.20158137921715
123.94897997589932        396.04714093043754
124.91065934925838        396.892700481658
125.87233872261744        397.73826003287843
126.8340180959765         398.5838195840988
127.795607561874          399.08708553092185
128.7571970277715         399.5903514777449
129.71878649366897        400.09361742456787
130.68037595956648        400.5968833713909
131.64146231460322        401.85306233193444
132.60254866964           403.1092412924779
133.56363502467676        404.36542025302145
134.5247213797135         405.621599213565
135.48580773475024        406.7075929678683
136.446894089787          407.79358672217165
137.40798044482372        408.8795804764749
138.36906679986046        409.96557423077826
139.32973842707182        411.08719372529777
140.29041005428323        412.2088132198173
141.25108168149458        413.3304327143368
142.21175330870594        414.4520522088563
143.17410043701005        415.55465701411737
144.1364475653142         416.6572618193784
145.09879469361837        417.75986662463947
146.0611418219225         418.86247142990055
147.02459015875755        420.03493481950386
147.9880384955926         421.20739820910717
148.9514868324277         422.3798615987104
149.91493516926275        423.5523249883137
150.87826536180958        424.6322508893981
151.84159555435645        425.71217679048254
152.8049257469033         426.7921026915669
153.76825593945014        427.87202859265136
154.731586131997          428.81740427648504
155.69491632454384        429.76277996031865
156.6582465170907         430.7081556441523
157.62157670963757        431.653531327986
158.58421392736417        432.43810920032877
159.5468511450908         433.22268707267153
160.50948836281745        434.00726494501424
161.4721255805441         434.791842817357
162.4343611649979         435.70625691456917
163.39659674945173        436.6206710117814
164.35883233390555        437.5350851089936
165.32106791835938        438.44949920620576
166.28365545715988        439.3162250227491
167.24624299596036        440.1829508392925
168.20883053476086        441.04967665583587
169.17141807356137        441.9164024723792
170.13400561236185        442.6304879802843
171.09659315116232        443.3445734881892
172.0591806899628         444.05865899609427
173.0217682287633         444.77274450399926
173.98498164003973        445.3607091088943
174.94819505131616        445.9486737137893
175.91140846259262        446.5366383186843
176.87462187386905        447.12460292357935
177.83783528514547        447.7384851397819
178.80104869642187        448.35236735598454
179.7642621076983         448.96624957218717
180.72747551897473        449.58013178838974
181.69157233491677        450.6969565765569
182.65566915085878        451.81378136472404
183.61976596680083        452.93060615289113
184.58386278274287        454.0474309410583
185.54779380285868        454.67706121315473
186.51172482297451        455.3066914852512
187.47565584309032        455.9363217573476
188.43958686320613        456.5659520294441
189.40316295806286        457.37919904761543
190.36673905291963        458.19244606578684
191.3303151477764         459.00569308395825
192.2938912426331         459.8189401021296
193.25715483730397        460.46306579460867
194.22041843197482        461.1071914870877
195.18368202664567        461.75131717956674
196.14694562131655        462.39544287204575
197.11020921598742        462.91219700259285
198.0734728106583         463.42895113314
199.03673640532915        463.94570526368716
200                       464.4624593942343
0                         318.1864476907785
0.7996148573014928        318.2836399447396
1.5992297146029857        318.3808321987007
2.3988445719044784        318.4780244526618
3.1984594292059714        318.57521670662294
4.020807350740718         318.40305618792985
4.843155272275466         318.2308956692368
5.6655031938102125        318.0587351505437
6.487851115344959         317.88657463185064
7.381172348755733         317.35902120389966
8.274493582166505         316.8314677759487
9.167814815577279         316.30391434799776
10.061136048988052        315.7763609200468
10.954457282398828        315.22891803432736
11.847778515809603        314.6814751486079
12.741099749220378        314.13403226288847
13.634420982631156        313.58658937716905
14.553203738135082        313.9914434315634
15.471986493639006        314.3962974859578
16.39076924914293         314.8011515403522
17.309552004646857        315.20600559474656
18.22833476015078         316.3585713812188
19.147117515654706        317.511137167691
20.065900271158625        318.6637029541632
20.984683026662548        319.81626874063545
21.903465782166474        322.27872125142335
22.822248537670404        324.74117376221125
23.74103129317433         327.20362627299914
24.659814048678257        329.66607878378704
25.578596804182183        331.0804706957813
26.497379559686113        332.4948626077756
27.416162315190036        333.9092545197699
28.334945070693962        335.32364643176413
29.253727826197885        337.29751067035556
30.17251058170181         339.27137490894694
31.091293337205734        341.2452391475383
32.01007609270966         343.21910338612975
32.92885884821358         344.80690208260154
33.847641603717506        346.39470077907333
34.76642435922143         347.9824994755452
35.68520711472536         349.570298172017
36.603989870229285        352.75021902848334
37.52277262573321         355.93013988494965
38.441555381237144        359.11006074141596
39.36033813674107         362.2899815978823
40.279120892245           365.0413280083276
41.197903647748916        367.7926744187729
42.116686403252835        370.5440208292182
43.03546915875676         373.2953672396635
43.954251914260695        376.2203380834893
44.87303466976463         379.14530892731506
45.791817425268555        382.0702797711408
46.71060018077249         384.9952506149666
47.6293829362764          387.99453382035716
48.54816569178033         390.9938170257477
49.466948447284246        393.9931002311382
50.38573120278817         396.99238343652877
51.3045139582921          399.6461637432273
52.22329671379603         402.29994404992584
53.142079469299965        404.9537243566244
54.06086222480389         407.6075046633229
54.97964498030782         410.88089058288574
55.898427735811744        414.1542765024485
56.81721049131566         417.42766242201134
57.73599324681959         420.70104834157416
58.654776002323516        424.16354833471644
59.57355875782744         427.62604832785877
60.49234151333137         431.0885483210011
61.411124268835295        434.5510483141434
62.329907024339214        437.7109725272054
63.24868977984315         440.8708967402674
64.16747253534707         444.03082095332945
65.086255290851           447.1907451663915
66.00503804635494         449.2747900809642
66.92382080185885         451.3588349955369
67.84260355736276         453.4428799101095
68.7613863128667          455.5269248246822
69.68016906837062         458.24147286408345
70.59895182387454         460.9560209034847
71.51773457937846         463.670568942886
72.43651733488238         466.3851169822873
73.35530009038631         468.3994897404351
74.27408284589023         470.41386249858306
75.19286560139416         472.42823525673094
76.11164835689809         474.44260801487883
77.030431112402           477.46281055206316
77.94921386790593         480.4830130892474
78.86799662340985         483.50321562643165
79.78677937891376         486.52341816361593
80.70556213441769         489.1192943310427
81.62434488992163         491.71517049846955
82.54312764542554         494.3110466658963
83.46191040092947         496.9069228333231
84.38069315643338         499.67706671148466
85.29947591193732         502.44721058964615
86.21825866744123         505.2173544678077
87.13704142294515         507.98749834596924
88.05582417844909         510.1576479276756
88.97460693395301         512.327797509382
89.89338968945694         514.4979470910885
90.81217244496086         516.6680966727948
91.73095520046479         518.6471059130124
92.64973795596872         520.6261151532301
93.56852071147264         522.6051243934478
94.48730346697657         524.5841336336654
95.4060862224805          525.8010118892493
96.3248689779844          527.017890144833
97.2436517334883          528.2347684004169
98.16243448899225         529.4516466560008
99.08121724449617         530.9929748593106
100.00000000000009        532.5343030626204
100.91878275550403        534.0756312659302
101.83756551100795        535.61695946924
102.75634826651186        537.8620932966878
103.67513102201579        540.1072271241358
104.59391377751973        542.3523609515837
105.51269653302364        544.5974947790315
106.43147928852756        546.949264033995
107.35026204403148        549.3010332889585
108.26904479953541        551.6528025439219
109.18782755503932        554.0045717988853
110.10661031054325        555.9065432702807
111.02539306604717        557.8085147416763
111.9441758215511         559.7104862130718
112.86295857705502        561.6124576844672
113.78174133255895        563.3261781406766
114.70052408806289        565.0398985968858
115.61930684356682        566.753619053095
116.53808959907074        568.4673395093043
117.45687235457467        570.3757188360869
118.37565511007858        572.2840981628694
119.29443786558251        574.1924774896521
120.21322062108642        576.1008568164347
121.13200337659036        577.715841220669
122.05078613209427        579.3308256249034
122.9695688875982         580.9458100291376
123.88835164310214        582.5607944333719
124.80713439860608        584.0284353072939
125.72591715411002        585.4960761812159
126.64469990961396        586.963717055138
127.56348266511792        588.4313579290599
128.48226542062181        589.9704987089895
129.40104817612576        591.509639488919
130.31983093162967        593.0487802688485
131.23861368713358        594.5879210487781
132.15739644263752        595.8741208816859
133.07617919814143        597.1603207145939
133.99496195364534        598.4465205475019
134.91374470914928        599.7327203804098
135.83252746465323        601.1016173952667
136.75131022015714        602.4705144101235
137.67009297566105        603.8394114249803
138.58887573116496        605.2083084398372
139.5076584866689         606.318331032733
140.42644124217284        607.4283536256289
141.34522399767675        608.5383762185247
142.26400675318072        609.6483988114206
143.18278950868464        611.3480963570975
144.10157226418858        613.0477939027742
145.0203550196925         614.747491448451
145.9391377751964         616.4471889941278
146.85792053070034        618.0730205742834
147.77670328620428        619.6988521544389
148.69548604170822        621.3246837345944
149.61426879721216        622.95051531475
150.53305155271607        624.0914341913793
151.45183430822           625.2323530680087
152.3706170637239         626.3732719446382
153.2893998192278         627.5141908212676
154.20818257473172        628.515056218942
155.1269653302357         629.5159216166167
156.04574808573963        630.5167870142911
156.96453084124354        631.5176524119656
157.88331359674746        632.5459147227241
158.80209635225137        633.5741770334826
159.72087910775528        634.6024393442409
160.6396618632592         635.6307016549994
161.55844461876316        637.3061256014381
162.4772273742671         638.981549547877
163.39601012977104        640.6569734943157
164.31479288527498        642.3323974407546
165.2335756407789         643.1084537402385
166.15235839628284        643.8845100397223
167.07114115178675        644.6605663392062
167.98992390729066        645.4366226386901
168.90870666279463        646.4773699302909
169.8274894182985         647.5181172218918
170.74627217380245        648.5588645134925
171.66505492930636        649.5996118050933
172.58383768481028        650.796856532823
173.50262044031422        651.9941012605527
174.42140319581816        653.1913459882824
175.3401859513221         654.388590716012
176.258968706826          654.9940271495802
177.17775146232995        655.5994635831485
178.09653421783386        656.2049000167166
179.01531697333778        656.8103364502848
179.93409972884172        657.766137974507
180.85288248434563        658.7219394987294
181.77166523984957        659.6777410229517
182.6904479953535         660.633542547174
183.60923075085742        661.5397818522781
184.52801350636133        662.4460211573822
185.44679626186527        663.3522604624864
186.36557901736919        664.2584997675905
187.28420655502268        665.0462264429295
188.20283409267617        665.8339531182685
189.12146163032963        666.6216797936075
190.04008916798313        667.4094064689466
190.92086453162986        668.2606269977873
191.80163989527654        669.1118475266281
192.68241525892324        669.963068055469
193.56319062256998        670.8142885843097
194.3867178817521         671.2925880728283
195.21024514093423        671.7708875613469
196.0337724001164         672.2491870498656
196.85729965929852        672.7274865383841
197.6429747444739         673.1007197927952
198.42864982964926        673.4739530472062
199.21432491482466        673.8471863016173
200                       674.2204195560283
0                         317.9173915517504
0.7657872373602748        317.8544871479469
1.5315744747205495        317.7915827441434
2.2973617120808245        317.72867834033985
3.063148949441099         317.6657739365363
3.8289361868013736        317.06906508065754
4.594723424161649         316.47235622477876
5.360510661521924         315.8756473689
6.126297898882198         315.2789385130212
6.899670486512492         314.5127621090433
7.673043074142787         313.7465857050654
8.44641566177308          312.98040930108743
9.219788249403374         312.2142328971095
9.993160837033669         312.4604845381848
10.766533424663962        312.70673617926013
11.539906012294256        312.9529878203354
12.313278599924551        313.1992394614107
13.094320710247446        314.29297718880423
13.87536282057034         315.3867149161978
14.656404930893233        316.4804526435913
15.437447041216128        317.57419037098487
16.21848915153902         319.3424783269326
16.99953126186191         321.1107662828804
17.780573372184804        322.8790542388281
18.5616154825077          324.64734219477583
19.345074226558644        326.7739859807805
20.12853297060959         328.9006297667851
20.911991714660537        331.02727355278967
21.69545045871148         333.1539173387943
22.478909202762424        335.5635745501955
23.262367946813363        337.97323176159665
24.045826690864306        340.3828889729978
24.82928543491525         342.792546184399
25.612638994166748        345.57061366283807
26.39599255341825         348.3486811412772
27.179346112669744        351.1267486197163
27.962699671921246        353.9048160981554
28.7457138059221          356.6939020796484
29.52872793992296         359.48298806114144
30.311742073923817        362.2720740426344
31.094756207924675        365.06116002412745
31.87777034192553         369.07184987944754
32.660784475926384        373.0825397347677
33.44379860992724         377.0932295900878
34.2268127439281          381.1039194454079
35.00982687792896         385.0697680483957
35.792841011929816        389.0356166513835
36.575855145930674        393.00146525437134
37.35886927993153         396.96731385735916
38.14188341393239         399.947901193214
38.924897547933256        402.9284885290689
39.707911681934114        405.9090758649237
40.49092581593497         408.88966320077856
41.27393994993583         411.5505444251138
42.05695408393669         414.2114256494491
42.83996821793754         416.87230687378434
43.6229823519384          419.5331880981196
44.405996485939255        422.2231938697685
45.18901061994011         424.91319964141746
45.972024753940964        427.60320541306646
46.75503888794182         430.2932111847154
47.53805302194268         434.0211291831327
48.321067155943545        437.74904718154994
49.1040812899444          441.47696517996724
49.88709542394526         445.2048831783845
50.67010955794612         447.7443702268033
51.45312369194698         450.2838572752221
52.23613782594784         452.8233443236409
53.0191519599487          455.36283137205976
53.80216609394955         459.040708641494
54.5851802279504          462.71858591092825
55.36819436195126         466.3964631803625
56.15120849595212         470.07434044979675
56.93422262995298         473.5421313753402
57.717236763953835        477.0099223008836
58.500250897954686        480.477713226427
59.283265031955544        483.94550415197045
60.0662791659564          486.71329254271586
60.84929329995725         489.4810809334613
61.63230743395811         492.2488693242068
62.41532156795897         495.0166577149522
63.19833570195982         497.7355025627382
63.981349835960685        500.4543474105241
64.76436396996155         503.1731922583101
65.5473781039624          505.89203710609604
66.33039223796327         508.91920295812463
67.11340637196413         511.94636881015316
67.896420505965           514.9735346621817
68.67943463996586         518.0007005142103
69.46244877396671         520.3879725517141
70.24546290796755         522.775244589218
71.0284770419684          525.1625166267219
71.81149117596925         527.5497886642257
72.59450530997012         530.1934797977005
73.37751944397097         532.8371709311753
74.16053357797183         535.48086206465
74.9435477119727          538.1245531981248
75.72656184597356         541.3058403227403
76.50957597997443         544.487127447356
77.29259011397528         547.6684145719717
78.07560424797614         550.8497016965872
78.858618381977           553.6401811864953
79.64163251597786         556.4306606764032
80.42464664997873         559.2211401663113
81.20766078397959         562.0116196562194
81.99067491798044         564.9932010742156
82.7736890519813          567.9747824922117
83.55670318598213         570.956363910208
84.33971731998298         573.9379453282041
85.12273145398385         576.1808500305535
85.9057455879847          578.4237547329028
86.68875972198556         580.6666594352521
87.47177385598643         582.9095641376014
88.25478798998729         584.9677130981628
89.03780212398816         587.0258620587242
89.82081625798902         589.0840110192856
90.60383039198989         591.1421599798471
91.38684452599074         592.8564150370805
92.16985865999158         594.570670094314
92.95287279399243         596.2849251515473
93.73588692799328         597.9991802087808
94.51890106199413         599.1353244267052
95.30191519599498         600.2714686446296
96.08492932999583         601.4076128625541
96.86794346399668         602.5437570804785
97.65095759799755         603.7740930226474
98.43397173199841         605.0044289648163
99.21698586599929         606.2347649069852
100.00000000000016        607.465100849154
100.78301413400101        609.0913715519744
101.56602826800186        610.7176422547948
102.34904240200271        612.3439129576152
103.13205653600356        613.9701836604355
103.91507067000443        615.2330812907638
104.69808480400528        616.495978921092
105.48109893800614        617.7588765514204
106.264113072007          619.0217741817486
107.04712720600787        620.6888550088404
107.83014134000874        622.3559358359321
108.6131554740096         624.0230166630239
109.39616960801047        625.6900974901157
110.17918374201133        627.3786899117509
110.9621978760122         629.0672823333862
111.74521201001305        630.7558747550214
112.52822614401391        632.4444671766566
113.31124027801476        634.0632428735146
114.09425441201563        635.6820185703725
114.8772685460165         637.3007942672306
115.66028268001736        638.9195699640885
116.44329681401821        640.1532729627481
117.22631094801908        641.3869759614078
118.00932508201993        642.6206789600674
118.79233921602078        643.854381958727
119.57535335002164        645.6101036971573
120.35836748402251        647.3658254355878
121.14138161802336        649.1215471740181
121.92439575202422        650.8772689124486
122.70740988602508        652.316169744405
123.49042402002594        653.7550705763613
124.27343815402679        655.1939714083176
125.05645228802764        656.632872240274
125.83946642202851        658.0203066330724
126.62248055602937        659.407741025871
127.40549469003021        660.7951754186695
128.18850882403106        662.182609811468
128.97152295803193        663.4094851523297
129.75453709203282        664.6363604931914
130.53755122603368        665.8632358340531
131.32056536003455        667.0901111749148
132.1035794940354         667.9647139759958
132.88659362803625        668.8393167770769
133.66960776203712        669.7139195781579
134.45262189603795        670.588522379239
135.2356360300388         671.3637093980278
136.01865016403966        672.1388964168166
136.80166429804052        672.9140834356054
137.58467843204136        673.6892704543943
138.36769256604222        674.9006665053435
139.1507067000431         676.1120625562927
139.93372083404395        677.323458607242
140.71673496804482        678.5348546581911
141.49974910204568        679.4670944521249
142.28276323604655        680.3993342460587
143.06577737004739        681.3315740399926
143.84879150404825        682.2638138339264
144.63180563804912        683.3149655840202
145.41481977204995        684.366117334114
146.19783390605082        685.4172690842079
146.98084804005168        686.4684208343017
147.76386217405255        687.5503809979728
148.5468763080534         688.6323411616436
149.32989044205428        689.7143013253146
150.11290457605514        690.7962614889856
150.89591871005598        691.5845819548313
151.67893284405682        692.3729024206771
152.46194697805765        693.1612228865229
153.24496111205852        693.9495433523687
154.02797524605938        694.8014184606914
154.81098938006028        695.6532935690141
155.59400351406117        696.5051686773368
156.37701764806204        697.3570437856595
157.1600317820629         698.282767701363
157.94304591606374        699.2084916170666
158.72606005006458        700.1342155327702
159.50907418406544        701.0599394484738
160.2920883180663         701.7915604446749
161.0751024520672         702.5231814408761
161.85811658606806        703.2548024370773
162.64113072006893        703.9864234332784
163.4241448540698         704.493351899335
164.20715898807063        705.0002803653917
164.9901731220715         705.5072088314483
165.77318725607236        706.0141372975049
166.5562013900732         706.70114913461
167.33921552407404        707.3881609717149
168.12222965807487        708.0751728088198
168.9052437920757         708.7621846459249
169.68825792607657        709.4615167856568
170.47127206007744        710.1608489253888
171.2542861940783         710.8601810651207
172.03730032807917        711.5595132048527
172.82031446208           712.2091643907936
173.60332859608084        712.8588155767347
174.3863427300817         713.5084667626758
175.16935686408254        714.1581179486168
175.9523709980834         714.6735061714763
176.73538513208428        715.1888943943356
177.51839926608514        715.7042826171952
178.301413400086          716.2196708400546
179.08442753408687        716.717937167797
179.86744166808774        717.2162034955395
180.6504558020886         717.7144698232819
181.43346993608947        718.2127361510243
182.21648407009033        718.7313080229205
182.99949820409117        719.2498798948167
183.782512338092          719.7684517667128
184.56552647209287        720.2870236386091
185.3485406060937         720.8879187694724
186.13155474009457        721.4888139003358
186.91456887409544        722.0897090311992
187.69758300809627        722.6906041620625
188.48059714209714        723.3546883383739