% Model:              Cav_Hex_Unif_flux_v5.2.1 - Lin. Distn.mph
% Version:            COMSOL 5.5.0.359
% Date:               Mar 22 2022, 20:09
% Table:              Evaluation Group 1 - Global Powers - 
% LD_ratio               Len (mm)                 Q_abs (W)                Q_BHS (W)                T_g_in (K)               T_g_out (K)              Q_rad_loss_front (W)     Q_abs_out (W)            Q_abs_in (W)             BHS_front (W)            BHS_interior (W)
15                       100                      38.874495138803866       40.87429640530455        342.1356738032831        784.948145806248         0                        0                        0                        7.415192667081955        33.459103738222595
20                       100                      44.96748701474737        45.58849639240825        343.41576704788105       849.1134503547235        0                        0                        0                        7.415192667081959        38.17330372532629
40                       100                      46.169914544918655       46.687039846642094       346.8744741611784        867.47897538542          0                        0                        0                        7.415192667081953        39.27184717956014
80                       100                      45.39517514643734        46.68597187972791        353.57235083076          871.6712485097125        0                        0                        0                        7.415192667081946        39.27077921264596
