% Model:              Cav_Hex_Unif_flux_v5.1.2 - Wall Distn.mph
% Version:            COMSOL 5.5.0.359
% Date:               Nov 23 2021, 11:37
% Dimension:          1
% Nodes:              289
% Expressions:        5
% Description:        Line graph
% x                       Height                   Height                   Height                   Height                   Height
0                         318.067279505805         318.0675137303742        318.0677008337943        318.06785593266346       318.06798683563323
0.3362077075251014        317.93302057776145       317.9327579203051        317.9325545944602        317.9323940534106        317.93226753802855
0.6724154150502027        317.7987616497179        317.798002110236         317.79740835512615       317.79693217415775       317.79654824042393
1.0086231225753042        317.6645027216744        317.6632463001669        317.6622621157921        317.66147029490486       317.6608289428193
1.3448308301004055        317.53024379363086       317.52849049009785       317.527115876458         317.526008415652         317.5251096452146
1.685976683846905         316.5068956077176        316.50151704332364       316.4972763672844        316.4938421620023        316.491041745673
2.027122537593404         315.4835474218043        315.47454359654944       315.4674368581109        315.4616759083526        315.4569738461313
2.3682683913399027        314.460199235891         314.4475701497752        314.4375973489373        314.42950965470294       314.4229059465896
2.7094142450864025        313.43685104997775       313.42059670300097       313.4077578397637        313.39734340105326       313.38883804704795
3.0505600988329014        313.36508602097325       313.34859033197256       313.335541466627         313.32494054904714       313.31626754724607
3.3917059525794007        313.2933209919688        313.27658396094415       313.26332509349027       313.252537697041         313.24369704744413
3.7328518063259           313.2215559629643        313.20457758991574       313.19110872035355       313.18013484503484       313.17112654764225
4.073997660072399         313.1497909339599        313.13257121888734       313.11889234721684       313.1077319930287        313.09855604784036
4.420081660040296         314.8037127487794        314.7924510881253        314.7834582248747        314.77607206253447       314.7699479464128
4.766165660008193         316.45763456359884       316.4523309573632        316.4480241025326        316.44441213204016       316.4413398449853
5.112249659976091         318.11155637841836       318.1122108266011        318.1125899801904        318.11275220154585       318.1127317435578
5.458333659943989         319.76547819323787       319.772090695839         319.7771558578483        319.7810922710516        319.7841236421302
5.806315428225677         321.53769435287336       321.55105914586363       321.5614888790053        321.5698055752372        321.5764456469221
6.154297196507366         323.30991051250885       323.3300275958883        323.3458219001624        323.35851887942283       323.36876765171394
6.5022789647890535        325.0821266721443        325.10899604591293       325.1301549213194        325.1472321836085        325.16108965650574
6.8502607330707415        326.8543428317798        326.8879644959376        326.9144879424764        326.9359454877941        326.9534116612976
7.19824250135243          329.3458233116095        329.3897499736685        329.42449566017905       329.4526986375155        329.4757587382001
7.546224269634119         331.83730379143924       331.89153545139936       331.9345033778817        331.9694517872369        331.99810581510263
7.894206037915807         334.32878427126894       334.39332092913025       334.4445110955843        334.4862049369583        334.52045289200515
8.242187806197496         336.82026475109865       336.89510640686115       336.95451881328694       337.0029580866797        337.0427999689077
8.590169574479185         340.5559723139681        340.64528064698584       340.7162406043707        340.77413283401324       340.8217885082369
8.938151342760872         344.2916798768375        344.3954548871105        344.4779623954545        344.54530758134683       344.60077704756617
9.28613311104256          348.027387439707         348.1456291272351        348.2396841865383        348.31648232868037       348.3797655868954
9.634114879324247         351.76309500257645       351.8958033673598        352.001405977622         352.0876570760139        352.15875412622466
9.982096647605937         356.414910440385         356.5634806049915        356.6818642824713        356.7787159478839        356.8587387383718
10.330078415887625        361.06672587819344       361.23115784262325       361.36232258732053       361.46977481975375       361.558723350519
10.678060184169315        365.71854131600196       365.89883508025497       366.0427808921698        366.16083369162374       366.2587079626662
11.026041952451004        370.3703567538104        370.5665123178867        370.72323919701904       370.85189256349366       370.95869257481337
11.374023720732689        375.35469007069696       375.56909521976155       375.74045364112436       375.88120667663907       375.99815628574015
11.722005489014379        380.33902338758355       380.5716781216364        380.7576680852296        380.9105207897844        381.0376199966669
12.069987257296063        385.32335670447014       385.5742610235113        385.77488252933495       385.9398349029298        386.0770837075936
12.41796902557775         390.30769002135673       390.5768439253862        390.79209697344027       390.9691490160752        391.1165474185204
12.76595079385944         394.98395649990255       395.27239949693677       395.50300971121766       395.6926912651244        395.8506727260209
13.113932562141128        399.6602229784484        399.96795506848736       400.21392244899505       400.41623351417354       400.58479803352145
13.461914330422818        404.3364894569943        404.66351064003794       404.92483518677244       405.1397757632227        405.318923341022
13.809896098704506        409.0127559355401        409.3590662115885        409.63574792454983       409.86331801227186       410.0530486485226
14.157877866986194        411.82701129734363       412.1858853211398        412.47255612630437       412.70832495523285       412.9049139765999
14.505859635267884        414.64126665914716       415.01270443069103       415.3093643280589        415.5533318981939        415.75677930467737
14.853841403549568        417.45552202095064       417.8395235402423        418.1461725298134        418.3983388411549        418.6086446327547
15.201823171831258        420.26977738275417       420.66634264979353       420.9829807315679        421.24334578411595       421.4605099608321
15.549804940112946        424.26348424429455       424.67547768962686       425.00442202718887       425.27494528675817       425.5006584942596
15.897786708394635        428.257191105835         428.6846127294602        429.02586332280987       429.3065447894004        429.54080702768704
16.245768476676325        432.2508979673754        432.6937477692935        433.0473046184308        433.33814429204267       433.5809555611145
16.593750244958013        436.2446048289158        436.70288280912683       437.06874591405176       437.3697437946849        437.6211040945419
16.9417320132397          440.8450054964686        441.3186708984322        441.6966923779869        442.0076588828898        442.2673732416457
17.289713781521392        445.4454061640214        445.9344589877375        446.324638841922         446.6455739710947        446.9136423887494
17.63769554980308         450.0458068315742        450.55024707704285       450.9525853058572        451.28348905929954       451.55991153585313
17.985677318084768        454.64620749912706       455.1660351663482        455.58053176979234       455.92140414750446       456.20618068295687
18.333659086366456        459.0069655910971        459.5429092529492        459.9701649829867        460.3215039674703        460.6150548869202
18.681640854648148        463.3677236830672        463.9197833395501        464.3597981961811        464.7216037874361        465.0239290908835
19.029622622929836        467.7284817750372        468.2966574261511        468.74943140937546       469.1217036074019        469.43280329484685
19.377604391211523        472.0892398670073        472.67353151275205       473.13906462256983       473.52180342736773       473.84167749881016
19.725586159493215        477.4245024303236        478.0311652249525        478.51423665501227       478.9111932815721        479.2428453097732
20.0735679277749          482.75976499364003       483.3887989371529        483.88940868745476       484.3005831357765        484.6440131207363
20.421549696056587        488.09502755695644       488.7464326493533        489.2645807198972        489.68997298998084       490.0451809316994
20.76953146433828         493.4302901202728        494.10406636155375       494.63975275233963       495.0793628441852        495.44634874266245
21.117513232619967        497.388807104668         498.0799931590546        498.62928654584476       499.0799039014619        499.45599840025125
21.465495000901655        501.34732408906325       502.0559199565555        502.6188203393498        503.0804449587386        503.4656480578401
21.81347676918334         505.30584107345845       506.03184675405635       506.6083541328549        507.08098601601534       507.4752977154289
22.16145853746503         509.26435805785366       510.0077735515572        510.59788792636          511.081527073292         511.4849473730177
22.50944030574672         513.1486828869479        513.9068945708605        514.5086185161697        515.0016857077137        515.4129317944202
22.857422074028403        517.0330077160421        517.8060155901637        518.4193491059794        518.9218443421353        519.3409162158226
23.205403842310087        520.9173325451363        521.7051366094669        522.3300796957891        522.8420029765568        523.2689006372251
23.553385610591775        524.8016573742306        525.6042576287701        526.2408102855989        526.7621616109785        527.1968850586276
23.90136737887346         528.6505566868748        529.4653744108567        530.1115261923254        530.6407085752551        531.0819724061076
24.24934914715515         532.4994559995189        533.3264911929432        533.982242099052         534.5192555395315        534.9670597535878
24.597330915436846        536.3483553121631        537.1876079750298        537.8529580057784        538.3978025038081        538.8521471010679
24.94531268371853         540.1972546248073        541.0487247571162        541.723673912505         542.2763494680846        542.7372344485481
25.29329445200022         544.2656812499672        545.1310899454598        545.8169495938414        546.3784946459356        546.8467728310313
25.64127622028191         548.3341078751272        549.2134551338034        549.9102252751779        550.4806398237865        550.9563112135145
25.9892579885636          552.4025345002872        553.295820322147         554.0035009565145        554.5827850016375        555.0658495959976
26.33723975684529         556.470961125447         557.3781855104907        558.0967766378509        558.6849301794884        559.1753879784809
26.685221525126977        559.9325868669367        560.8511026253473        561.5785109696453        562.1738158736068        562.6702233254559
27.03320329340867         563.3942126084264        564.3240197402039        565.0602453014397        565.6627015677252        566.1650586724309
27.381185061690356        566.8558383499162        567.7969368550605        568.5419796332342        569.1515872618435        569.6598940194059
27.729166829972044        570.3174640914059        571.2698539699171        572.0237139650286        572.6404729559619        573.1547293663809
28.077148598253736        572.9111259483452        573.8723253712069        574.6330764918705        575.2554367231139        575.7743594072963
28.42513036653542         575.5047878052846        576.4747967724968        577.2424390187124        577.8704004902659        578.3939894482116
28.773112134817108        578.098449662224         579.0772681737866        579.8518015455543        580.4853642574178        581.013619489127
29.1210939030988          580.6921115191633        581.6797395750764        582.4611640723962        583.1003280245698        583.6332495300423
29.469075671380484        583.3112889420049        584.3068350991913        585.0944556308215        585.7386651806218        586.2758058552962
29.81705743966217         585.9304663648464        586.9339306233062        587.7277471892468        588.3770023366737        588.91836218055
30.16503920794386         588.549643787688         589.5610261474212        590.3610387476721        591.0153394927257        591.5609185058038
30.513020976225548        591.1688212105296        592.1881216715361        592.9943303060974        593.6536766487777        594.2034748310576
30.861002744507235        594.1318139294299        595.1601384703347        595.9733372263483        596.6383242643944        597.1928159144177
31.208984512788923        597.0948066483303        598.1321552691334        598.9523441465994        599.6229718800113        600.1821569977778
31.55696628107062         600.0577993672307        601.1041720679319        601.9313510668504        602.6076194956281        603.1714980811379
31.904948049352303        603.020792086131         604.0761888667305        604.9103579871014        605.5922671112448        606.1608391644979
32.25292981763399         606.3000164251168        607.3647223662151        608.2060764336509        608.8937449963278        609.4670542385901
32.600911585915675        609.5792407641028        610.6532558656999        611.5017948802002        612.1952228814107        612.7732693126823
32.94889335419736         612.8584651030887        613.9417893651846        614.7975133267496        615.4967007664937        616.0794843867744
33.29687512247905         616.1376894420746        617.2303228646692        618.0932317732991        618.7981786515767        619.3856994608666
33.644856890760735        619.021533165049         620.1225252360125        620.9918386158395        621.7018835532881        622.2935740578191
33.99283865904243         621.9053768880235        623.0147276073558        623.8904454583799        624.6055884549994        625.2014486547716
34.34082042732412         624.789220610998         625.9069299786992        626.7890523009204        627.5092933567107        628.1093232517242
34.6888021956058          627.6730643339724        628.7991323500424        629.6876591434608        630.4129982584221        631.0171978486767
35.036783963887494        630.3837218784747        631.5168233094194        632.4107540304966        633.1404265781853        633.7482124194962
35.384765732169186        633.094379422977         634.2345142687961        635.1338489175323        635.8678548979485        636.4792269903157
35.73274750045088         635.8050369674792        636.9522052281729        637.8569438045681        638.5952832177118        639.2102415611353
36.08072926873257         638.5156945119815        639.6698961875499        640.5800386916038        641.322711537475         641.9412561319548
36.42871103701425         641.0415651437344        642.2026259833344        643.1180077979641        643.8648582737761        644.4868405257494
36.77669280529594         643.5674357754874        644.7353557791191        645.6559769043242        646.4070050100772        647.0324249195438
37.124674573577636        646.0933064072403        647.2680855749037        648.1939460106845        648.9491517463782        649.5780093133383
37.47265634185932         648.6191770389934        649.8008153706883        650.7319151170448        651.4912984826793        652.1235937071328
37.82063811014101         650.8456903969642        652.0327663169428        652.9679856512367        653.7306316619095        654.3655987444433
38.168619878422696        653.072203754935         654.2647172631972        655.2040561854287        655.9699648411395        656.6076037817539
38.51660164670438         655.2987171129058        656.4966682094516        657.4401267196206        658.2092980203695        658.8496088190645
38.864583414986065        657.5252304708766        658.7286191557062        659.6761972538126        660.4486311995996        661.091613856375
39.212565183267756        659.4510782720209        660.6593093369199        661.6105261614939        662.3858182152549        663.0311259714504
39.56054695154945         661.3769260731651        662.5899995181337        663.5448550691751        664.3230052309102        664.9706380865257
39.90852871983114         663.3027738743094        664.5206896993474        665.4791839768563        666.2601922465656        666.9101502016009
40.25651048811282         665.2286216754536        666.4513798805611        667.4135128845377        668.1973792622209        668.8496623166762
40.60449225639451         667.1635565077936        668.3905499821113        669.3558527809698        670.1421966115122        670.7964821950302
40.9524740246762          669.0984913401335        670.3297200836614        671.2981926774021        672.0870139608033        672.7433020733841
41.30045579295789         671.0334261724735        672.2688901852116        673.2405325738343        674.0318313100945        674.6901219517381
41.64843756123958         672.9683610048135        674.2080602867617        675.1828724702665        675.9766486593858        676.636941830092
41.99641932952127         674.9388484431807        676.1830535462973        677.1612103524079        677.9575745451648        678.6199348691757
42.34440109780296         676.909335881548         678.1580468058329        679.1395482345492        679.9385004309438        680.6029279082595
42.69238286608465         678.8798233199152        680.1330400653685        681.1178861166907        681.9194263167229        682.5859209473432
43.040364634366334        680.8503107582825        682.1080333249041        683.0962239988321        683.900352202502         684.5689139864269
43.38834640264802         683.1083912530223        684.3712223928814        685.3631808303589        686.170196484018         686.8410344546597
43.7363281709297          685.3664717477623        686.6344114608587        687.6301376618858        688.440040765534         689.1131549228927
44.084309939211394        687.6245522425021        688.8976005288359        689.8970944934127        690.7098850470501        691.3852753911256
44.43229170749308         689.8826327372419        691.1607895968132        692.1640513249396        692.9797293285661        693.6573958593585
44.78027347577476         691.7620354526741        693.0443010616574        694.0505719818815        694.868542534596         695.548011166774
45.128255244056454        693.6414381681062        694.9278125265016        695.9370926388233        696.7573557406259        697.4386264741895
45.476237012338146        695.5208408835383        696.811323991346         697.8236132957652        698.6461689466558        699.3292417816051
45.82421878061983         697.4002435989705        698.6948354561902        699.710133952707         700.5349821526858        701.2198570890206
46.172200548901515        699.2855464163002        700.5840386895163        701.602166096266         702.429143437089         703.1156681375566
46.520182317183206        701.17084923363          702.4732419228425        703.4941982398252        704.3233047214921        705.0114791860924
46.86816408546489         703.0561520509598        704.3624451561686        705.3862303833844        706.2174660058954        706.9072902346284
47.216145853746575        704.9414548682895        706.2516483894948        707.2782625269434        708.1116272902987        708.8031012831643
47.564127622028266        706.5307798815652        707.8440610395305        708.8728795149054        709.7078638955415        710.4005498080768
47.91210939030996         708.1201048948409        709.4364736895664        710.4674965028676        711.3041005007844        711.9979983329893
48.26009115859164         709.7094299081166        711.0288863396021        712.0621134908296        712.9003371060275        713.5954468579018
48.60807292687334         711.2987549213923        712.6212989896378        713.6567304787916        714.4965737112703        715.1928953828143
48.95605469515503         712.3122461551097        713.6367062063209        714.6735036141032        715.514345418559         716.2114085348031
49.30403646343672         713.3257373888271        714.6521134230038        715.6902767494147        716.5321171258475        717.2299216867918
49.652018231718394        714.3392286225444        715.6675206396869        716.7070498847263        717.5498888331362        718.2484348387807
50.000000000000085        715.3527198562618        716.6829278563699        717.7238230200378        718.5676605404248        719.2669479907695
50.34798176828177         716.6183378916722        717.9509572240019        718.993555664661         719.8386309011914        720.5388363072669
50.695963536563454        717.8839559270828        719.2189865916339        720.2632883092842        721.109601261958         721.8107246237644
51.043945304845145        719.1495739624932        720.4870159592658        721.5330209539075        722.3805716227247        723.0826129402618
51.39192707312684         720.4151919979035        721.7550453268977        722.8027535985307        723.6515419834914        724.3545012567592
51.73990884140853         721.5434934581149        722.8854549912635        723.934645995418         724.7845036065056        725.488246589922
52.08789060969021         722.6717949183262        724.0158646556291        725.0665383923053        725.9174652295198        726.6219919230848
52.43587237797191         723.8000963785374        725.1462743199947        726.1984307891928        727.050426852534         727.7557372562476
52.783854146253596        724.9283978387488        726.2766839843605        727.3303231860801        728.1833884755482        728.8894825894104
53.13183591453529         725.9051906992436        727.2552387160341        728.3101146012806        729.164066366492         729.8708035162658
53.47981768281698         726.8819835597385        728.2337934477079        729.2899060164809        730.1447442574357        730.8521244431213
53.82779945109867         727.8587764202333        729.2123481793815        730.2696974316814        731.1254221483795        731.8334453699766
54.175781219380355        728.8355692807281        730.1909029110552        731.2494888468818        732.1061000393232        732.8147662968321
54.52376298766204         730.1018722927491        731.4594217436874        732.5195517605537        733.3772546395594        734.0866925443117
54.87174475594372         731.3681753047701        732.7279405763195        733.7896146742254        734.6484092397957        735.3586187917914
55.21972652422541         732.6344783167913        733.9964594089518        735.0596775878971        735.9195638400319        736.630545039271
55.56770829250709         733.9007813288123        735.2649782415839        736.329740501569         737.190718440268         737.9024712867507
55.91569006078878         735.4232919893018        736.7899827808066        737.8564778811547        738.7186626018163        739.431241878334
56.26367182907047         736.9458026497912        738.3149873200291        739.3832152607405        740.2466067633646        740.9600124699175
56.61165359735216         738.4683133102806        739.8399918592518        740.9099526403263        741.774550924913         742.4887830615008
56.959635365633844        739.99082397077          741.3649963984743        742.436690019912         743.3024950864612        744.0175536530842
57.307617133915535        740.7369206950723        742.1124023093487        743.1850064405298        744.0514451545789        744.766935881077
57.65559890219722         741.4830174193748        742.8598082202229        743.9333228611476        744.8003952226965        745.5163181090697
58.00358067047891         742.2291141436773        743.6072141310973        744.6816392817655        745.549345290814         746.2657003370626
58.3515624387606          742.9752108679797        744.3546200419717        745.4299557023833        746.2982953589317        747.0150825650554
58.69954420704229         744.0017510745049        745.3828930377222        746.459435637617         747.3286176075333        748.0459838862785
59.04752597532398         745.0282912810301        746.4111660334725        747.4889155728508        748.3589398561348        749.0768852075015
59.39550774360566         746.0548314875552        747.439439029223         748.5183955080847        749.3892621047365        750.1077865287245
59.74348951188735         747.0813716940804        748.4677120249734        749.5478754433185        750.4195843533381        751.1386878499476
60.09147128016903         747.8382708101277        749.2258146542468        750.3068105275715        751.1790948202549        751.8985859657067
60.43945304845072         748.5951699261748        749.9839172835204        751.0657456118246        751.9386052871716        752.6584840814659
60.78743481673241         749.3520690422221        750.7420199127939        751.8246806960776        752.6981157540885        753.418382197225
61.13541658501409         750.1089681582692        751.5001225420675        752.5836157803307        753.4576262210053        754.1782803129842
61.48339835329579         750.7738283512563        752.1659588413019        753.2501378641299        754.1246319983354        754.8456227233933
61.83138012157748         751.4386885442433        752.8317951405361        753.9166599479291        754.7916377756655        755.5129651338024
62.17936188985917         752.1035487372303        753.4976314397704        754.5831820317284        755.4586435529958        756.1803075442115
62.52734365814087         752.7684089302173        754.1634677390048        755.2497041155276        756.1256493303259        756.8476499546206
62.87532542642256         753.6424868770357        755.0387520311382        756.125846924706         757.002399555823         757.7248189665593
63.22330719470425         754.5165648238542        755.9140363232716        757.0019897338843        757.8791497813199        758.6019879784978
63.57128896298593         755.3906427706726        756.7893206154049        757.8781325430627        758.755900006817         759.4791569904364
63.919270731267616        756.264720717491         757.6646049075383        758.7542753522412        759.6326502323141        760.3563260023751
64.2672524995493          757.058603906243         758.4595286434583        759.549950404208         760.4288603523321        761.1529046965082
64.61523426783099         757.852487094995         759.2544523793783        760.3456254561746        761.2250704723502        761.9494833906415
64.96321603611267         758.646370283747         760.0493761152984        761.1413005081413        762.0212805923684        762.7460620847746
65.31119780439435         759.4402534724991        760.8442998512185        761.9369755601081        762.8174907123864        763.5426407789078
65.65917957267604         759.91992451521          761.3245514828133        762.4176571501043        763.2984811947297        764.0238428699663
66.00716134095772         760.399595557921         761.804803114408         762.8983387401008        763.779471677073         764.5050449610249
66.35514310923942         760.879266600632         762.2850547460027        763.3790203300972        764.2604621594164        764.9862470520833
66.7031248775211          761.358937643343         762.7653063775974        763.8597019200936        764.7414526417597        765.4674491431418
67.05110664580279         762.0171091487226        763.4242106529641        764.5191469469202        765.4012880702994        766.1275562310059
67.39908841408449         762.6752806541023        764.0831149283308        765.1785919737467        766.0611234988392        766.7876633188699
67.74707018236617         763.3334521594819        764.7420192036976        765.8380370005732        766.7209589273789        767.447770406734
68.09505195064786         763.9916236648615        765.4009234790643        766.4974820273998        767.3807943559186        768.107877494598
68.44303371892956         764.8204161799694        766.2305489455655        767.3277290411503        768.2114931956484        768.9388926862011
68.79101548721125         765.6492086950772        767.0601744120668        768.1579760549007        769.0421920353781        769.7699078778041
69.13899725549294         766.478001210185         767.8897998785679        768.9882230686512        769.8728908751078        770.6009230694073
69.48697902377464         767.3067937252928        768.7194253450691        769.8184700824016        770.7035897148376        771.4319382610104
69.83496079205632         768.0445170952148        769.4578182284536        770.5573786446707        771.442886549899         772.1715200019125
70.182942560338           768.7822404651369        770.196211111838         771.2962872069397        772.1821833849604        772.9111017428147
70.53092432861969         769.5199638350589        770.9346039952225        772.0351957692088        772.9214802200219        773.6506834837168