% Model:              Cav_Hex_Unif_flux_v5.1.2 - Wall Distn.mph
% Version:            COMSOL 5.5.0.359
% Date:               Nov 23 2021, 11:37
% Dimension:          1
% Nodes:              261
% Expressions:        5
% Description:        Line graph
% x                       Height                   Height                   Height                   Height                   Height
0                         318.2472181799631        318.2479601757667        318.2485297994933        318.2489767286334        318.24933117229995
0.17766895830122295       317.5094292746364        317.50772555045296       317.5063965145695        317.50533709342096       317.50448207899984
0.3553379166024459        316.7716403693096        316.76749092513916       316.7642632296456        316.76169745820846       316.7596329856997
0.5330068749036688        316.03385146398284       316.02725629982535       316.0221299447217        316.01805782299596       316.0147838923996
0.7106758332048918        315.2960625586561        315.2870216745116        315.27999665979786       315.2744181877835        315.2699347990994
0.8883447915061147        314.05905954878403       314.0458602080295        314.0356012303529        314.0274514211821        314.0208982206586
1.0660137498073374        312.82205653891197       312.80469874154744       312.79120580090796       312.78048465458073       312.7718616422178
1.2436827081085604        311.58505352903995       311.5635372750653        311.54681037146304       311.5335178879793        311.52282506377696
1.4213516664097832        310.3480505191679        310.3223758085832        310.3024149420181        310.2865511213779        310.2737884853361
1.6139691925994173        311.51917280432735       311.49741828323135       311.4805084520357        311.4670718982005        311.456264163592
1.8065867187890512        312.69029508948677       312.67246075787943       312.6586019620533        312.64759267502313       312.63873984184784
1.9992042449786853        313.8614173746462        313.8475032325276        313.8366954720709        313.8281134518458        313.82121552010364
2.1918217711683194        315.03253965980565       315.0225457071757        315.0147889820885        315.0086342286684        315.0036911983595
2.384439297357954         316.33204398859766       316.3264246544628        316.3220706449573        316.3186177762407        316.31584187319163
2.5770568235475886        317.6315483173897        317.6303036017499        317.62935230782614       317.62860132381303       317.62799254802377
2.7696743497372234        318.9310526461817        318.93418254903696       318.93663397069497       318.93858487138533       318.9401432228559
2.9622918759268577        320.2305569749737        320.23806149632406       320.2439156335638        320.24856841895763       320.25229389768805
3.1576903657120208        324.29314209576427       324.31432734108495       324.33079617918446       324.34386412925284       324.3543371367674
3.3530888554971847        328.3557272165549        328.3905931858458        328.4176767248051        328.439159839548         328.45638037584683
3.548487345282348         332.41831233734547       332.46685903060666       332.5045572704257        332.5344555498432        332.5584236149262
3.7438858350675113        336.4808974581361        336.54312487536754       336.5914378160464        336.62975126013833       336.66046685400556
3.9371232365668978        342.25608079975683       342.3379292059785        342.4014805015671        342.45189014905037       342.49232554501504
4.130360638066284         348.0312641413775        348.1327335365895        348.21152318708783       348.2740290379624        348.3241842360245
4.323598039565669         353.80644748299824       353.92753786720056       354.02156587260856       354.09616792687444       354.15604292703404
4.516835441065055         359.5816308246189        359.72234219781154       359.8316085581293        359.9183068157865        359.9879016180435
4.710072842564441         363.7685959563204        363.92359122812064       364.04395470259226       364.1394662150262        364.2161427658572
4.903310244063827         367.9555610880219        368.1248402584297        368.25630084705523       368.3606256142659        368.4443839136709
5.096547645563214         372.14252621972344       372.3260892887388        372.4686469915182        372.5817850135056        372.6726250614846
5.289785047062599         376.3294913514249        376.5273383190479        376.68099313598117       376.8029444127454        376.9008662092983
5.483022448561987         381.50112324829286       381.7163668726081        381.8834841647156        382.01608854729545       382.12254391966513
5.676259850061373         386.67275514516075       386.90539542616824       387.08597519345005       387.2292326818455        387.344221630032
5.86949725156076          391.84438704202864       392.0944239797284        392.2884662221845        392.44237681639555       392.56589934039886
6.062734653060147         397.01601893889654       397.2834525332886        397.49095725091894       397.65552095094563       397.7875770507657
6.255972054559533         405.13476508777296       405.4293108289618        405.65760396515503       405.8384626651616        405.9834398474014
6.449209456058919         413.2535112366494        413.57516912463495       413.8242506793911        414.02140437937754       414.1793026440372
6.642446857558306         421.3722573855258        421.72102742030813       421.9908973936272        422.2043460935935        422.37516544067296
6.835684259057691         429.49100353440224       429.8668857159813        430.1575441078633        430.38728780780946       430.57102823730867
7.028921660557077         436.3004282076916        436.6996135379488        437.0081142420487        437.25182856732243       437.44664143242744
7.2221590620564635        443.10985288098095       443.53234135991624       443.858684376234         444.1163693268354        444.32225462754616
7.415396463555849         449.91927755427037       450.36506918188377       450.7092545104193        450.98091008634844       451.1978678226649
7.608633865055236         456.7287022275597        457.19779700385124       457.5598246446047        457.8454508458614        458.0734810177836
7.801871266554622         463.0815983078578        463.57227549763616       463.95078283605324       464.24929781169845       464.4875320112742
7.995108668054009         469.4344943881558        469.9467539914211        470.3417410275018        470.65314477753554       470.9015830047649
8.188346069553393         475.7873904684539        476.321232485206         476.73269921895036       477.0569917433726        477.3156339982555
8.38158347105278          482.140286548752         482.6957109789909        483.1236574103989        483.46083870920967       483.7296849917462
8.574820872552166         486.548268248921         487.1174674796061        487.55584814445194       487.90112754568713       488.17633943370265
8.768058274051551         490.95624994909          491.5392239802213        491.988038878505         492.3414163821646        492.62299387565906
8.961295675550938         495.36423164925907       495.9609804808365        496.4202296125581        496.78170521864206       497.0696483176155
9.154533077050324         499.77221334942806       500.38273698145167       500.85242034661115       501.2219940551195        501.51630275957194
9.34777047854971          504.08345974178695       504.7069257542222        505.1864051366542        505.5635714177066        505.8638357260207
9.541007880049097         508.39470613414585       509.0311145269927        509.52038992669713       509.90514878029364       510.2113686924695
9.734245281548484         512.7059525265047        513.3553032997632        513.8543747167402        514.2467261428808        514.5589016589182
9.92748268304787          517.0171989188636        517.6794920725338        518.1883595067832        518.5883035054678        518.906434625367
10.120720084547258        521.60212702464          522.2780929456889        522.7973034621508        523.2052587211839        523.5296649764012
10.313957486046645        526.1870551304164        526.8766938188439        527.4062474175184        527.8222139369           528.1528953274355
10.507194887546031        530.7719832361927        531.4752946919989        532.0151913728862        532.4391691526159        532.77612567847
10.700432289045418        535.3569113419691        536.073895565154         536.6241353282538        537.056124368332         537.3993560295042
10.893669690544803        540.3451440120375        541.0769883150599        541.6384380935236        542.0790867568849        542.4290875889085
11.086907092044187        545.3333766821058        546.080081064966         546.6527408587935        547.1020491454377        547.4588191483128
11.280144493543572        550.3216093521743        551.0831738148719        551.6670436240634        552.1250115339906        552.4885507077171
11.473381895042959        555.3098420222427        556.0862665647778        556.6813463893333        557.1479739225434        557.5182822671213
11.666619296542345        560.6203630786235        561.4113319331207        562.0173875678264        562.4924812337474        562.8693792430679
11.859856698041732        565.9308841350045        566.7363973014635        567.3534287463195        567.8369885449513        568.2204762190144
12.053094099541118        571.2414051913854        572.0614626698062        572.6894699248127        573.1814958561553        573.5715731949608
12.246331501040505        576.5519262477662        577.3865280381491        578.0255111033058        578.5260031673592        578.9226701709074
12.439568902539891        580.8445716146412        581.6911749126007        582.3392147073395        582.8466932534348        583.2487987754993
12.63280630403928         585.1372169815161        585.9958217870524        586.6529183113731        587.1673833395103        587.5749273800911
12.826043705538666        589.4298623483909        590.300468661504         590.9666219154068        591.4880734255858        591.9010559846829
13.019281107038053        593.7225077152658        594.6051155359557        595.2803255194405        595.8087635116613        596.2271845892748
13.212518508537439        597.5837116110578        598.4767444708625        599.159840030203         599.6943696162581        600.1175335906901
13.405755910036826        601.4449155068496        602.3483734057693        603.0393545409655        603.5799757208549        604.0078825921054
13.598993311536214        605.3061194026416        606.220002340676         606.918869051728         607.4655818254516        607.8982315935207
13.7922307130356          609.1673232984334        610.0916312755828        610.7983835624906        611.3511879300485        611.788580594936
13.985468114534987        612.939367665053         613.8740820140491        614.5887493971587        615.1477003128048        615.5899058114373
14.178705516034372        616.7114120316728        617.6565327525154        618.3791152318269        618.9442126955612        619.3912310279388
14.371942917533755        620.4834563982924        621.4389834909816        622.169481066495         622.7407250783176        623.1925562444402
14.565180319033141        624.2555007649122        625.2214342294479        625.9598469011631        626.537237461074         626.9938814609416
14.758417720532528        626.326276972238         627.2974539593163        628.039829924679         628.620280487117         629.0793045296554
14.951655122031916        628.3970531795637        629.3734736891845        630.1198129481947        630.7033235131601        631.1647275983692
15.144892523531302        630.4678293868895        631.4494934190527        632.1997959717105        632.786366539203         633.2501506670831
15.33812992503069         632.5386055942154        633.5255131489209        634.2797789952263        634.869409565246         635.3355737357969
15.531367326530075        635.092017693509         636.0852264687745        636.8442787684065        637.4376218890969        637.9066868916344
15.72460472802946         637.6454297928027        638.6449397886281        639.4087785415868        640.0058342129478        640.4778000474721
15.917842129528847        640.1988418920964        641.2046531084818        641.9732783147672        642.5740465367987        643.0489132033097
16.11107953102823         642.75225399139          643.7643664283354        644.5377780879475        645.1422588606496        645.6200263591472
16.304316932527616        646.179491762957         647.1994972945803        647.9789202973157        648.5880691327127        649.0694829810813
16.497554334027004        649.606729534524         650.6346281608253        651.4200625066837        652.0338794047759        652.5189396030153
16.690791735526393        653.0339673060909        654.0697590270702        654.8612047160519        655.4796896768391        655.9683962249492
16.884029137025777        656.4612050776578        657.5048898933151        658.3023469254201        658.9254999489023        659.4178528468832
17.077266538525166        659.345382896634         660.3956109807226        661.1980476809031        661.8250639661904        662.3204303651971
17.270503940024554        662.22956071561          663.2863320681302        664.093748436386         664.7246279834785        665.2230078835112
17.463741341523942        665.113738534586         666.1770531555378        666.989449191869         667.6241920007667        668.1255854018251
17.65697874302333         667.9979163535621        669.0677742429453        669.8851499473519        670.5237560180548        671.028162920139
17.850216144522715        670.4602977399462        671.535576486091         672.3570585342596        672.9988357484905        673.5057043553338
18.0434535460221          672.9226791263303        674.0033787292366        674.8289671211674        675.4739154789263        675.9832457905286
18.236690947521485        675.3850605127144        676.4711809723822        677.3008757080751        677.948995209362         678.4607872257234
18.42992834902087         677.8474418990985        678.9389832155279        679.7727842949828        680.4240749397977        680.9383286609182
18.623165750520254        680.4874966858822        681.5848542820232        682.4230660313656        683.0777650950419        683.5946666740164
18.816403152019642        683.127551472666         684.2307253485187        685.0733477677485        685.731455250286         686.2510046871146
19.009640553519027        685.7676062594498        686.8765964150141        687.7236295041314        688.38514540553          688.9073427002129
19.202877955018412        688.4076610462337        689.5224674815095        690.3739112405142        691.0388355607741        691.5636807133111
19.3961153565178          690.656490127525         691.7759739563612        692.6309749106717        693.2986478968969        693.8256194613588
19.589352758017185        692.9053192088163        694.029480431213         694.8880385808293        695.5584602330196        696.0875582094063
19.78259015951657         695.1541482901075        696.2829869060648        697.1451022509868        697.8182725691423        698.349496957454
19.975827561015958        697.4029773713988        698.5364933809166        699.4021659211444        700.0780849052651        700.6114357055017
20.169064962515346        699.9629896485089        701.101783364759         701.9714426455964        702.6504253326611        703.186136985993
20.362302364014734        702.5230019256192        703.6670733486012        704.5407193700485        705.2227657600572        705.7608382664843
20.55553976551412         705.0830142027293        706.2323633324436        707.1099960945005        707.7951061874533        708.3355395469755
20.748777167013507        707.6430264798394        708.797653316286         709.6792728189525        710.3674466148493        710.9102408274669
20.942014568512892        709.1923446134482        710.3502046313598        711.2342788742053        711.9243480682001        712.4686094886077
21.13525197001228         710.7416627470569        711.9027559464337        712.789284929458         713.481249521551         714.0269781497484
21.32848937151167         712.2909808806658        713.4553072615076        714.3442909847106        715.0381509749018        715.5853468108893
21.521726773011054        713.8402990142745        715.0078585765815        715.8992970399634        716.5950524282526        717.1437154720301
21.714964174510442        715.768286835488         716.939650195687         717.8339726497534        718.5319463990362        719.0823156142415
21.908201576009827        717.6962746567015        718.8714418147924        719.7686482595434        720.4688403698196        721.020915756453
22.101438977509215        719.6242624779148        720.803233433898         721.7033238693333        722.4057343406032        722.9595158986644
22.294676379008603        721.5522502991283        722.7350250530034        723.6379994791233        724.3426283113868        724.8981160408758
22.487913780507988        723.3743249520165        724.5606783023547        725.4663422451051        726.1730231147195        726.7300774141518
22.681151182007373        725.1963996049047        726.386331551706         727.2946850110868        728.0034179180523        728.5620387874277
22.874388583506757        727.018474257793         728.2119848010574        729.1230277770685        729.8338127213849        730.3940001607036
23.067625985006142        728.8405489106812        730.0376380504088        730.9513705430503        731.6642075247177        732.2259615339796
23.26086338650553         730.5632236139236        731.763528078225         732.6796910503342        733.3943907926143        733.9575714376554
23.454100788004915        732.2858983171661        733.4894181060412        734.4080115576182        735.124574060511         735.689181341331
23.6473381895043          734.0085730204087        735.2153081338574        736.1363320649021        736.8547573284077        737.4207912450067
23.840575591003688        735.7312477236511        736.9411981616736        737.8646525721861        738.5849405963044        739.1524011486824
24.033812992503073        737.6184850926734        738.8319400630069        739.7580473122517        740.4803716469228        741.0493947989976
24.22705039400246         739.5057224616955        740.7226819643403        741.6514420523174        742.3758026975412        742.9463884493128
24.420287795501846        741.3929598307178        742.6134238656737        743.5448367923832        744.2712337481596        744.8433820996281
24.61352519700123         743.2801971997401        744.504165767007         745.4382315324489        746.166664798778         746.7403757499433
24.80676259850062         745.0396410531328        746.2668102024159        747.2033226693343        747.9336516791557        748.508830346519
25.000000000000004        746.7990849065254        748.0294546378248        748.9684138062197        749.7006385595332        750.2772849430946
25.193237401499392        748.558528759918         749.7920990732337        750.7335049431051        751.4676254399109        752.0457395396703
25.386474802998777        750.3179726133106        751.5547435086426        752.4985960799905        753.2346123202885        753.814194136246
25.57971220449816         752.2633077125272        753.5035428743391        754.4500432321438        755.188110117935         755.7692780959383
25.772949605997546        754.2086428117439        755.4523422400359        756.4014903842972        757.1416079155815        757.7243620556305
25.966187007496927        756.1539779109605        757.4011416057325        758.3529375364504        759.0951057132281        759.6794460153229
26.159424408996312        758.0993130101771        759.3499409714292        760.3043846886037        761.0486035108746        761.6345299750152
26.3526618104957          759.588692228558         760.8417556587738        761.7980649287053        762.543725761066         763.130758613881
26.54589921199509         761.0780714469388        762.3335703461182        763.2917451688072        764.0388480112574        764.6269872527467
26.739136613494477        762.5674506653197        763.8253850334628        764.7854254089088        765.5339702614488        766.1232158916125
26.932374014993865        764.0568298837005        765.3171997208074        766.2791056490106        767.0290925116402        767.6194445304783
27.12561141649325         765.4970340695976        766.7596854073738        767.7233562702452        768.4747227775925        769.066147613657
27.318848817992638        766.9372382554948        768.2021710939401        769.1676068914796        769.9203530435448        770.5128506968358
27.512086219492023        768.3774424413918        769.6446567805065        770.6118575127141        771.3659833094971        771.9595537800145
27.705323620991408        769.8176466272889        771.0871424670729        772.0561081339487        772.8116135754494        773.4062568631932
27.898561022490796        770.839528616639         772.1106441716435        773.0808638469672        773.8373478826481        774.4327476156986
28.09179842399018         771.861410605989         773.134145876214         774.1056195599857        774.8630821898468        775.4592383682041
28.285035825489565        772.883292595339         774.1576475807847        775.1303752730042        775.8888164970454        776.4857291207095
28.478273226988954        773.905174584689         775.1811492853552        776.1551309860228        776.9145508042441        777.5122198732149
28.671510628488342        775.1222977234112        776.4000826141867        777.3754635155478        778.1359677957913        778.7344638500178
28.864748029987727        776.3394208621335        777.6190159430182        778.595796045073         779.3573847873386        779.956707826821
29.05798543148711         777.5565440008556        778.8379492718498        779.8161285745981        780.5788017788857        781.178951803624
29.2512228329865          778.7736671395779        780.0568826006812        781.0364611041232        781.8002187704329        782.4011957804271
29.444460234485884        779.6712380525391        780.9557079813674        781.936265914869         782.7007909996645        783.3023593499369
29.63769763598527         780.5688089655005        781.8545333620534        782.8360707256147        783.6013632288959        784.2035229194466
29.830935037484657        781.4663798784617        782.7533587427395        783.7358755363604        784.5019354581275        785.1046864889563
30.024172438984042        782.3639507914229        783.6521841234256        784.6356803471061        785.4025076873589        786.0058500584661
30.21740984048343         783.5409890627095        784.8308756490096        785.8156524883514        786.5834697298751        787.1875589051542
30.41064724198282         784.7180273339962        786.0095671745936        786.9956246295967        787.7644317723914        788.3692677518422
30.603884643482207        785.895065605283         787.1882587001776        788.175596770842         788.9453938149076        789.5509765985303
30.797122044981595        787.0721038765696        788.3669502257616        789.3555689120873        790.1263558574237        790.7326854452183
30.99035944648098         788.1910101757119        789.4873646979081        790.4771521706326        791.248840817922         791.8558473912301
31.18359684798037         789.3099164748542        790.6077791700546        791.5987354291779        792.3713257784202        792.9790093372421
31.37683424947975         790.4288227739963        791.7281936422012        792.7203186877232        793.4938107389185        794.102171283254
31.570071650979138        791.5477290731386        792.8486081143477        793.8419019462685        794.6162956994167        795.225333229266
31.763309052478526        792.4831624998501        793.7852808971915        794.7795330701421        795.5546636755025        796.1642518963178
31.956546453977914        793.4185959265617        794.7219536800353        795.7171641940156        796.4930316515884        797.1031705633695
32.149783855477295        794.3540293532733        795.658626462879         796.654795317889         797.4313996276741        798.0420892304212
32.343021256976684        795.2894627799848        796.5952992457229        797.5924264417625        798.3697676037599        798.981007897473
32.536258658476065        796.5088993597849        797.8163566346246        798.8147414584502        799.5930539085832        800.2050250973116
32.72949605997545         797.7283359395849        799.0374140235263        800.0370564751378        800.8163402134066        801.4290422971502
32.92273346147484         798.947772519385         800.258471412428         801.2593714918254        802.0396265182301        802.6530594969888
33.11597086297422         800.1672090991851        801.4795288013297        802.481686508513         803.2629128230534        803.8770766968274
33.30920826447361         801.001594014918         802.3150236846433        803.3180440379381        804.0999354457916        804.7145965932052
33.50244566597299         801.835978930651         803.1505185679569        804.1544015673633        804.9369580685297        805.5521164895831
33.69568306747237         802.670363846384         803.9860134512704        804.9907590967885        805.773980691268         806.3896363859609
33.88892046897176         803.504748762117         804.821508334584         805.8271166262136        806.6110033140062        807.2271562823387
34.08215787047115         804.191490781978         805.5091558545626        806.5154651100063        807.2998903118984        807.9164449274103
34.275395271970545        804.878232801839         806.1968033745412        807.2038135937992        807.9887773097905        808.6057335724822
34.46863267346993         805.5649748217           806.8844508945199        807.8921620775918        808.6776643076826        809.2950222175539
34.66187007496932         806.2517168415611        807.5720984144984        808.5805105613846        809.3665513055747        809.9843108626256
34.85510747646871         806.9489537235601        808.2702606175425        809.2793849524381        810.065966629361         810.6841216977391
35.0483448779681          807.646190605559         808.9684228205865        809.9782593434917        810.7653819531474        811.3839325328524
35.24158227946748         808.343427487558         809.6665850236304        810.6771337345452        811.4647972769337        812.0837433679658
35.43481968096687         809.0406643695569        810.3647472266745        811.3760081255988        812.16421260072          812.7835542030792
35.62805708246625         809.7543630787981        811.0793975511273        812.0913958297286        812.8801651838128        813.499924613074
35.82129448396564         810.4680617880392        811.7940478755801        812.8067835338584        813.5961177669055        814.2162950230688
36.014531885465026        811.1817604972805        812.5086982000329        813.5221712379882        814.3120703499982        814.9326654330637
36.20776928696441         811.8954592065217        813.2233485244857        814.2375589421181        815.0280229330909        815.6490358430584
36.401006688463795        812.4105023125155        813.7390667491259        814.7537972354589        815.5446569771909        816.1659603907101
36.594244089963176        812.9255454185093        814.2547849737659        815.2700355287998        816.061291021291         816.6828849383617
36.78748149146256         813.4405885245031        814.7705031984061        815.7862738221407        816.577925065391         817.1998094860132
36.980718892961946        813.955631630497         815.2862214230463        816.3025121154816        817.094559109491         817.7167340336649
37.173956294461334        814.6205973758694        815.9520633282251        816.969030573305         817.7615927334651        818.3841452983424
37.36719369596073         815.2855631212417        816.6179052334039        817.6355490311283        818.4286263574393        819.0515565630199
37.56043109746012         815.9505288666139        817.2837471385827        818.3020674889517        819.0956599814134        819.7189678276974
37.753668498959506        816.6154946119863        817.9495890437615        818.9685859467751        819.7626936053875        820.3863790923749
37.94690590045889         817.280474358379         818.6154431590699        819.6351128307793        820.429730608996         821.0537883598604
38.14014330195827         817.9454541047719        819.2812972743782        820.3016397147835        821.0967676126045        821.7211976273461
38.33338070345766         818.6104338511647        819.9471513896864        820.9681665987878        821.763804616213         822.3886068948317
38.52661810495704         819.2754135975574        820.6130055049947        821.634693482792         822.4308416198214        823.0560161623173
38.719855506456426        819.8848862124656        821.2232644694127        822.2455621015794        823.0421759664368        823.6676925987741
38.91309290795581         820.4943588273738        821.8335234338306        822.8564307203667        823.6535103130522        824.279369035231
39.106330309455196        821.1038314422821        822.4437823982486        823.4672993391541        824.2648446596675        824.8910454716877