% Model:              Cav_Hex_Unif_flux_v5.1.2 - Wall Distn.mph
% Version:            COMSOL 5.5.0.359
% Date:               Nov 23 2021, 11:37
% Dimension:          1
% Nodes:              313
% Expressions:        5
% Description:        Line graph
% x                       Height                   Height                   Height                   Height                   Height
0                         318.08637168892596       318.0870887520741        318.08751145864545       318.087780020929         318.0879598066534
1.261441531054717         318.05092869142567       318.0515187130412        318.05187037630895       318.05209697143835       318.05225135171565
2.522883062109434         318.01548569392537       318.0159486740083        318.01622929397246       318.0164139219477        318.0165428967779
3.784324593164151         317.980042696425         317.9803786349754        317.98058821163596       317.980730872457         317.98083444184016
5.045766124218868         317.9445996989247        317.9448085959425        317.94494712929946       317.94504782296633       317.94512598690244
6.31447935928039          317.75869707853064       317.75795299798585       317.75754111400573       317.7572993094962        317.75715408904324
7.58319259434191          317.5727944581366        317.5710974000292        317.57013509871194       317.5695507960261        317.56918219118404
8.851905829403432         317.38689183774255       317.3842418020725        317.3827290834182        317.38180228255595       317.38121029332484
10.120619064464954        317.2009892173485        317.19738620411584       317.1953230681245        317.1940537690858        317.19323839546564
11.389332299526474        316.6987888951411        316.69103694227067       316.6864334703687        316.68347716352935       316.68147522241145
12.658045534587998        316.19658857293365       316.18468768042555       316.17754387261294       316.17290055797287       316.16971204935726
13.92675876964952         315.6943882507262        315.6783384185804        315.6686542748572        315.66232395241633       315.65794887630307
15.195472004711043        315.1921879285188        315.1719891567352        315.1597646771014        315.15174734685985       315.1461857032489
16.47525274294612         314.9426680555132        314.921052163406         314.9078608461456        314.89912948404435       314.89300711869294
17.755033481181197        314.6931481825076        314.6701151700768        314.65595701518976       314.6465116212288        314.639828534137
19.03481421941627         314.44362830950206       314.41917817674766       314.404053184234         314.39389375841324       314.386649949581
20.314594957651348        314.19410843649644       314.16824118341844       314.15214935327816       314.14127589559774       314.13347136502506
21.596273128568182        314.6815562596665        314.6574030035884        314.64226111618217       314.63194086940155       314.62443552548393
22.877951299485012        315.1690040828365        315.14656482375835       315.13237287908623       315.1226058432054        315.11539968594286
24.159629470401846        315.6564519060066        315.63572664392825       315.62248464199024       315.61327081700927       315.6063638464018
25.441307641318684        316.14389972917667       316.1248884640982        316.1125964048943        316.10393579081307       316.0973280068607
26.723934528576393        316.85121628606674       316.8426481504228        316.836953983564         316.8326120377226        316.8288166060217
28.006561415834103        317.55853284295677       317.5604078367474        317.56131156223364       317.5612882846321        317.56030520518266
29.289188303091816        318.26584939984684       318.278167523072         318.28566914090334       318.2899645315416        318.29179380434357
30.571815190349525        318.9731659567369        318.9959272093966        319.01002671957303       319.01864077845113       319.02328240350454
31.85491643577768         320.130848617693         320.1612274676745        320.17983022570985       320.1914733012856        320.1983781677577
33.13801768120583         321.28853127864903       321.32652772595236       321.34963373184667       321.36430582412004       321.3734739320108
34.42111892663399         322.44621393960506       322.4918279842302        322.5194372379834        322.5371383469545        322.548569696264
35.70422017206214         323.60389660056114       323.65712824250807       323.68924074412024       323.709970869789         323.72366546051717
36.98732141749029         325.6623461661738        325.72731511591627       325.7665399300237        325.79202736768684       325.8091587827491
38.27042266291845         327.72079573178644       327.7975019893245        327.84383911592727       327.8740838655846        327.894652104981
39.5535239083466          329.77924529739903       329.8676888627327        329.92113830183075       329.9561403634824        329.9801454272129
40.836625153774754        331.8376948630117        331.9378757361409        331.9984374877343        332.03819686138024       332.0656387494448
42.12020075737334         334.58237650415623       334.70541462341106       334.77991010114533       334.82888284773355       334.8628208517977
43.403776360971925        337.3270581453007        337.47295351068124       337.5613827145563        337.61956883408686       337.6600029541506
44.68735196457052         340.0717397864453        340.24049239795147       340.3428553279673        340.4102548204402        340.45718505650353
45.9709275681691          342.81642142758983       343.00803128522165       343.1243279413783        343.2009408067935        343.25436715885644
47.25450317176769         345.49057528295486       345.7054899207687        345.8360361771835        345.9221194636128        345.98223581558545
48.53807877536628         348.1647291383199        348.4029485563158        348.54774441298866       348.64329812043206       348.7101044723145
49.82165437896488         350.83888299368493       351.1004071918628        351.25945264879385       351.3644767772513        351.4379731290436
51.105229982563465        353.51303684904997       353.79786582740985       353.97116088459904       354.0856554340706        354.1658417857726
52.38880558616206         356.33263690246054       356.64251177962615       356.8310862043154        356.9557306654654        357.04307421782823
53.67238118976066         359.1522369558711        359.48715773184244       359.69101152403175       359.8258058968602        359.92030664988374
54.955956793359256        361.97183700928167       362.3318036840587        362.55093684374816       362.695881128255         362.79753908193936
56.23953239695784         364.79143706269224       365.176449636275         365.4108621634645        365.56595635964976       365.6747715139949
57.523108000556434        367.82770100188486       368.2405933773303        368.491978373099         368.65837286255265       368.77519666449825
58.806683604155026        370.8639649410775        371.3047371183857        371.5730945827336        371.75078936545555       371.8756218150015
60.09025920775361         373.9002288802701        374.368880859441         374.6542107923681        374.84320586835844       374.97604696550485
61.373834811352204        376.9364928194627        377.4330246004963        377.73532700200263       377.93562237126133       378.0764721160082
62.657410414950796        379.8510677123505        380.3749105560206        380.69382472344563       380.9051936011091        381.0539065332036
63.94098601854939         382.7656426052383        383.31679651154496       383.65232244488857       383.8747648309569        384.031340950399
65.22456162214799         385.6802174981262        386.2586824670693        386.61082016633156       386.8443360608047        387.00877536759435
66.50813722574658         388.594792391014         389.2005684225936        389.56931788777456       389.8139072906525        389.98620978478976
67.79171282934519         391.4626381406604        392.09422763141146       392.4786531283239        392.73369380038673       392.91343353053435
69.07528843294376         394.3304838903067        394.9878868402294        395.38798836887327       395.65348031012104       395.840657276279
70.35886403654234         397.1983296399531        397.88154604904724       398.29732360942256       398.5732668198553        398.7678810220236
71.64243964014094         400.0661753895995        400.77520525786514       401.2066588499719        401.49305332958954       401.69510476776816
72.92601524373954         402.67714215147555       403.40703636342363       403.85102508889054       404.14579957109265       404.3538331039916
74.20959084733813         405.2881089133516        406.0388674689821        406.49539132780916       406.7985458125959        407.01256144021494
75.49316645093671         407.8990756752277        408.6706985745406        409.1397575667278        409.45129205409904       409.67128977643836
76.77674205453532         410.5100424371038        411.3025296800991        411.7841238056464        412.1040382956022        412.3300181126617
78.0603176581339          412.7377597259256        413.5502136466596        414.04364512827226       414.37145378025406       414.60305746324735
79.34389326173248         414.9654770147474        415.79789761322          416.3031664508981        416.63886926490585       416.876096813833
80.62746886533107         417.19319430356927       418.04558157978045       418.562687773524         418.9062847495577        419.1491361644187
81.91104446892965         419.42091159239106       420.29326554634093       420.82220909614983       421.1737002342095        421.4221755150043
83.19462007252824         420.91971281470353       421.807136555383         422.34561669934635       422.7035295602159        422.9566112912404
84.47819567612684         422.41851403701605       423.3210075644251        423.8690243025429        424.2333588862222        424.4910470674764
85.76177127972544         423.9173152593286        424.83487857346717       425.3924319057395        425.76318821222856       426.02548284371244
87.04534688332403         425.4161164816411        426.34874958250924       426.9158395089361        427.29301753823495       427.5599186199485
88.32892248692262         428.29829854315346       429.25144607988744       429.8318473831456        430.21826970871564       430.4916894348911
89.61249809052121         431.1804806046657        432.1541425772657        432.74785525735524       433.14352187919627       433.4234602498337
90.89607369411979         434.062662666178         435.0568390746439        435.66386313156477       436.0687740496769        436.35523106477626
92.17964929771838         436.94484472769034       437.9595355720221        438.57987100577435       438.9940262201576        439.28700187971884
93.46322490131698         439.66378808359053       440.6975156711475        441.329219464301         441.75085624778444       442.04921732893445
94.74680050491556         442.3827314394908        443.43549577027295       444.0785679228276        444.50768627541134       444.8114327781501
96.03037610851415         445.101674795391         446.17347586939843       446.82791638135416       447.26451630303825       447.5736482273657
97.31395171211274         447.8206181512912        448.91145596852385       449.5772648398808        450.0213463306651        450.3358636765813
98.59752731571133         450.50058409233327       451.60832301825775       452.2845696663161        452.73564949636705       453.0551769397933
99.88110291930994         453.1805500333753        454.30519006799165       454.9918744927514        455.4499526620689        455.77449020300526
101.16467852290853        455.86051597441735       457.00205711772554       457.69917931918667       458.16425582777083       458.4938034662172
102.44825412650712        458.5404819154594        459.69892416745944       460.40648414562196       460.8785589934727        461.21311672942915
103.73182973010573        460.7053867248609        461.87788831649596       462.59404910358404       463.07186011550993       463.41050438976515
105.01540533370432        462.8702915342624        464.0568524655324        464.7816140615462        465.2651612375472        465.6078920501012
106.29898093730291        465.03519634366387       466.23581661456893       466.96917901950826       467.4584623595844        467.8052797104373
107.5825565409015         467.20010115306536       468.41478076360545       469.1567439774704        469.65176348162163       470.0026673707733
108.8661321445001         468.9352275485609        470.16130026669674       470.91033419349736       471.41013301900813       471.76447703460724
110.14970774809868        470.6703539440564        471.90781976978803       472.6639244095243        473.1685025563946        473.52628669844125
111.43328335169727        472.40548033955184       473.65433927287927       474.4175146255513        474.92687209378107       475.2880963622752
112.71685895529586        474.14060673504736       475.40085877597056       476.17110484157826       476.68524163116757       477.04990602610917
114.00043455889444        475.54574847132443       476.8149916041761        477.5910347087852        478.1091759857756        478.47672500307635
115.28401016249303        476.95089020760156       478.2291244323817        479.01096457599215       479.5331103403837        479.9035439800435
116.56758576609165        478.35603194387863       479.64325726058723       480.43089444319907       480.95704469499174       481.3303629570106
117.85116136969023        479.7611736801557        481.05739008879283       481.850824310406         482.3809790495998        482.7571819339778
119.13473697328882        481.6150163877282        482.92676443658905       483.72979232563245       484.2663803097121        484.647137757244
120.41831257688743        483.4688590953007        484.7961387843852        485.60876034085896       486.1517815698244        486.53709358051026
121.70188818048602        485.3227018028732        486.66551313218145       487.4877283560854        488.0371828299367        488.4270494037765
122.9854637840846         487.1765445104457        488.5348874799776        489.36669637131195       489.922584090049         490.3170052270427
124.26903938768322        488.02862473834455       489.3882535900174        490.22049918705386       490.7765143099166        491.1709135411462
125.55261499128181        488.8807049662434        490.2416197000573        491.0743020027958        491.6304445297842        492.0248218552497
126.8361905948804         489.73278519414225       491.0949858100971        491.92810481853763       492.48437474965175       492.8787301693532
128.119766198479          490.5848654220411        491.948351920137         492.78190763427955       493.33830496951936       493.7326384834567
129.4033418020776         492.9271841300433        494.3033869288507        495.1447960757441        495.7064784343497        496.10456091942945
130.68691740567618        495.2695028380455        496.65842193756447       497.50768451720865       498.07465189918014       498.47648335540214
131.97049300927478        497.61182154604774       499.0134569462782        499.8705729586732        500.44282536401056       500.8484057913749
133.25406861287337        499.95414025404995       501.36849195499195       502.2334614001378        502.810998828841         503.22032822734764
134.53764421647193        502.98185974296473       504.4105270926602        505.2845435991656        505.8682862885072        506.28207522902375
135.8212198200705         506.00957923187946       507.45256223032834       508.33562579819346       508.9255737481735        509.34382223069986
137.1047954236691         509.03729872079424       510.49459736799656       511.38670799722127       511.9828612078398        512.4055692323759
138.38837102726768        512.065018209709         513.5366325056648        514.4377901962491        515.0401486675061        515.4673162340521
139.67194663086627        514.2414668877113        515.7231772157066        516.630479221735         517.2370665649898        517.6672869050714
140.95552223446487        516.4179155657137        517.9097219257485        518.8231682472207        519.4339844624735        519.8672575760907
142.23909783806346        518.594364243716         520.0962666357902        521.0158572727064        521.6309023599572        522.0672282471098
143.52267344166205        520.7708129217183        522.2828113458321        523.2085462981922        523.827820257441         524.2671989181291
144.80624904526064        522.6842794534434        524.2046315678124        525.1359267539666        525.7590215455779        526.2011579744678
146.08982464885923        524.5977459851687        526.1264517897928        527.063307209741         527.6902228337149        528.1351170308064
147.37340025245783        526.5112125168939        528.0482720117731        528.9906876655152        529.6214241218518        530.0690760871452
148.65697585605642        528.424679048619         529.9700922337533        530.9180681212896        531.5526254099888        532.0030351434839
149.940551459655          530.0317521021013        531.5850171758188        532.5381310498278        533.176234671143         533.6292153284243
151.2241270632536         531.6388251555836        533.1999421178843        534.1581939783662        534.7998439322973        535.2553955133646
152.5077026668522         533.2458982090658        534.81486705995          535.7782569069044        536.4234531934516        536.8815756983051
153.79127827045082        534.8529712625481        536.4297920020155        537.3983198354426        538.0470624546058        538.5077558832455
155.0748538740494         536.3567817362749        537.9393074917177        538.911480423197         539.5626925431508        540.0251412094229
156.358429477648          537.8605922100018        539.4488229814199        540.4246410109513        541.0783226316958        541.5425265356002
157.6420050812466         539.3644026837286        540.958338471122         541.9378015987057        542.5939527202407        543.0599118617777
158.9255806848452         540.8682131574554        542.4678539608243        543.4509621864601        544.1095828087857        544.5772971879551
160.20915628844375        542.3484415190088        543.9530467648368        544.9392952763171        545.6000135377975        546.0692019518539
161.49273189204234        543.8286698805623        545.4382395688494        546.4276283661741        547.0904442668093        547.5611067157527
162.77630749564094        545.3088982421157        546.923432372862         547.9159614560311        548.5808749958211        549.0530114796513
164.0598830992395         546.7891266036692        548.4086251768745        549.4042945458882        550.0713057248329        550.5449162435501
165.34345870283812        548.217828605745         549.8411406880957        550.8391357812835        551.5075976595136        551.9821451749501
166.6270343064367         549.6465306078208        551.273656199317         552.2739770166788        552.9438895941944        553.4193741063501
167.9106099100353         551.0752326098966        552.7061717105383        553.708818252074         554.3801815288751        554.8566030377501
169.1941855136339         552.5039346119723        554.1386872217596        555.1436594874693        555.8164734635559        556.2938319691501
170.47776111723252        553.9484919809877        555.5882808891429        556.5964476824562        557.2715151697098        557.750544626507
171.76133672083108        555.393049350003         557.037874556526         558.0492358774432        558.7265568758638        559.207257283864
173.04491232442965        556.8376067190184        558.4874682239093        559.50202407243          560.1815985820178        560.6639699412209
174.32848792802824        558.2821640880337        559.9370618912926        560.954812267417         561.6366402881717        562.1206825985778
175.61206353162683        559.7304484027677        561.3885990314149        562.4083615375487        563.0915438615173        563.5765436329838
176.8956391352254         561.1787327175018        562.8401361715371        563.8619108076803        564.5464474348628        565.0324046673898
178.179214738824          562.6270170322359        564.2916733116592        565.3154600778118        566.0013510082083        566.4882657017957
179.46279034242258        564.0753013469699        565.7432104517815        566.7690093479436        567.4562545815538        567.9441267362017
180.74636594602117        565.5830509882448        567.2542323964667        568.2819941987677        568.970486902008         569.4592421818002
182.0299415496198         567.0908006295197        568.765254341152         569.794979049592         570.4847192224622        570.9743576273986
183.3135171532184         568.5985502707946        570.2762762858372        571.3079639004162        571.9989515429163        572.4894730729969
184.597092756817          570.1062999120695        571.7872982305224        572.8209487512404        573.5131838633705        574.0045885185954
185.88066836041563        571.5921831249264        573.2771148955387        574.3132777568596        575.0072688529226        575.4999367236379
187.1642439640142         573.0780663377833        574.7669315605551        575.8056067624789        576.5013538424748        576.9952849286805
188.44781956761275        574.5639495506402        576.2567482255715        577.2979357680981        577.995438832027         578.490633133723
189.73139517121135        576.0498327634971        577.7465648905879        578.7902647737174        579.4895238215792        579.9859813387656
191.01497077480994        577.3906120405283        579.0908861022903        580.1367700370055        580.8375074226183        581.3350035774537
192.29854637840853        578.7313913175594        580.4352073139926        581.4832753002936        582.1854910236574        582.6840258161418
193.58212198200715        580.0721705945907        581.779528525695         582.8297805635816        583.5334746246965        584.0330480548299
194.86569758560574        581.4129498716219        583.1238497373973        584.1762858268697        584.8814582257356        585.382070293518
196.14927318920434        582.5946477454157        584.3092065710914        585.363931728407         586.0706636574578        586.5723849139654
197.43284879280293        583.7763456192097        585.4945634047856        586.5515776299444        587.2598690891799        587.7626995344128
198.71642439640152        584.9580434930035        586.6799202384798        587.7392235314817        588.4490745209021        588.9530141548602
200.0000000000001         586.1397413667974        587.865277072174         588.9268694330191        589.6382799526242        590.1433287753075
201.28357560359868        587.2831996223275        589.0114168121448        590.0746508448585        590.7871548852219        591.2929590594247
202.5671512071973         588.4266578778577        590.1575565521157        591.2224322566979        591.9360298178194        592.4425893435418
203.85072681079586        589.5701161333877        591.3036962920867        592.3702136685372        593.0849047504171        593.592219627659
205.13430241439445        590.7135743889179        592.4498360320575        593.5179950803765        594.2337796830147        594.7418499117762
206.41787801799305        591.7213531534943        593.4603837682155        594.5302609620078        595.2472056632382        595.756091678441
207.70145362159164        592.7291319180708        594.4709315043735        595.542526843639         596.2606316434617        596.7703334451058
208.98502922519026        593.7369106826472        595.4814792405316        596.5547927252702        597.2740576236853        597.7845752117707
210.26860482878888        594.7446894472237        596.4920269766897        597.5670586069015        598.2874836039088        598.7988169784355
211.55218043238747        595.8081398509582        597.5573007837547        598.6333890707862        599.3544818104225        599.8662459126884
212.83575603598604        596.8715902546927        598.6225745908198        599.6997195346709        600.4214800169362        600.9336748469414
214.1193316395846         597.9350406584272        599.6878483978847        600.7660499985556        601.48847822345          602.0011037811942
215.4029072431832         598.9984910621617        600.7531222049498        601.8323804624403        602.5554764299637        603.0685327154471
216.68648284678176        599.9787209904399        601.7352290858349        602.8155899907679        603.5393920320505        604.0529131948351
217.97005845038038        600.9589509187181        602.7173359667199        603.7987995190954        604.5233076341373        605.0372936742232
219.25363405397897        601.9391808469962        603.699442847605         604.7820090474229        605.507223236224         606.0216741536112
220.53720965757753        602.9194107752744        604.68154972849          605.7652185757505        606.4911388383108        607.0060546329993
221.82078526117613        603.8505219742716        605.6141638721708        606.6986933795368        607.4251532017655        607.9404134626159
223.10436086477472        604.7816331732688        606.5467780158517        607.6321681833232        608.3591675652201        608.8747722922324
224.3879364683733         605.7127443722661        607.4793921595325        608.5656429871095        609.2931819286748        609.809131121849
225.67151207197193        606.6438555712633        608.4120063032133        609.4991177908959        610.2271962921294        610.7434899514656
226.95508767557052        607.6804421455395        609.4502809686121        610.5383694251873        611.26706445587          611.7837538034752
228.23866327916912        608.7170287198156        610.488555634011         611.5776210594788        612.3069326196106        612.8240176554848
229.5222388827677         609.7536152940918        611.52683029941          612.6168726937703        613.3468007833512        613.8642815074943
230.8058144863663         610.790201868368         612.5651049648088        613.6561243280618        614.3866689470918        614.9045453595039
232.0893900899649         611.6143735721813        613.3910274404482        614.4830895253053        615.2143083658244        615.7326310044747
233.37296569356346        612.4385452759948        614.2169499160875        615.3100547225488        616.0419477845571        616.5607166494455
234.65654129716205        613.2627169798081        615.042872391727         616.1370199197924        616.8695872032897        617.3888022944162
235.94011690076064        614.0868886836215        615.8687948673663        616.9639851170359        617.6972266220224        618.216887939387
237.22369250435924        614.9267659556808        616.71048913406          617.8067604264828        618.5407027818027        619.0608303869092
238.50726810795783        615.7666432277401        617.5521834007538        618.6495357359297        619.3841789415828        619.9047728344312
239.79084371155642        616.6065204997993        618.3938776674477        619.4923110453765        620.2276551013631        620.7487152819534
241.074419315155          617.4463977718586        619.2355719341415        620.3350863548234        621.0711312611433        621.5926577294756
242.3579949187536         618.264444745573         620.0555846787704        621.156286727544         621.8931082028324        622.4151588396969
243.6415705223522         619.0824917192874        620.8755974233993        621.9774871002647        622.7150851445216        623.2376599499182
244.9251461259508         619.9005386930019        621.6956101680281        622.7986874729854        623.5370620862108        624.0601610601395
246.20872172954938        620.7185856667163        622.515622912657         623.6198878457061        624.3590390278999        624.8826621703608
247.49229733314797        621.4133425735835        623.2115348400889        624.3164409983544        625.0559754793443        625.5798303882825
248.77587293674657        622.1080994804506        623.9074467675207        625.0129941510029        625.7529119307887        626.2769986062042
250.0594485403452         622.8028563873177        624.6033586949525        625.7095473036512        626.4498483822331        626.9741668241259
251.34302414394378        623.4976132941848        625.2992706223843        626.4061004562996        627.1467848336774        627.6713350420475
252.62659974754231        624.1273171455           625.9298234808182        627.0370865305983        627.7780029747565        628.3026694567571
253.9101753511409         624.7570209968151        626.560376339252         627.6680726048972        628.4092211158356        628.9340038714668
255.1937509547395         625.3867248481301        627.1909291976858        628.2990586791962        629.0404392569146        629.5653382861763
256.4773265583381         626.0164286994452        627.8214820561197        628.9300447534949        629.6716573979937        630.1966727008859
257.7609021619367         626.6416692013495        628.4480156397806        629.5572845696495        630.299315820846         630.8245811602737
259.0444777655353         627.2669097032538        629.0745492234413        630.184524385804         630.9269742436983        631.4524896196616