% Model:              Cav_Hex_Unif_flux_v5.1.2 - Wall Distn.mph
% Version:            COMSOL 5.5.0.359
% Date:               Nov 23 2021, 11:37
% Dimension:          1
% Nodes:              388
% Expressions:        5
% Description:        Line graph
% x                       Height                   Height                   Height                   Height                   Height
0                         1021.7339973214788       1024.0589544588215       1025.852675302153        1027.2656976588644       1028.3901294258953
0.1291989664082689        1020.7979874801857       1023.1230652944623       1024.9151684660128       1026.3252763692544       1027.4459723112013
0.2583979328165378        1019.8619776388924       1022.187176130103        1023.9776616298724       1025.3848550796442       1026.5018151965073
0.38759689922480667       1018.9259677975992       1021.2512869657437       1023.0401547937321       1024.4444337900343       1025.5576580818133
0.5167958656330756        1018.0001483596598       1020.3300538133763       1022.1216106846573       1023.52755650478         1024.6421898768015
0.6459948320413443        1017.07432892172         1019.4088206610087       1021.2030665755825       1022.6106792195257       1023.7267216717894
0.7751937984496132        1016.1485094837803       1018.4875875086411       1020.2845224665077       1021.6938019342713       1022.8112534667774
0.9043927648578822        1015.2425018604501       1017.5784495539349       1019.3718923093328       1020.7777438780009       1021.8921350937035
1.0335917312661511        1014.3364942371197       1016.6693115992285       1018.4592621521577       1019.8616858217305       1020.9730167206294
1.16279069767442          1013.4304866137894       1015.7601736445223       1017.5466319949827       1018.94562776546         1020.0538983475554
1.291989664082689         1012.565758896887        1014.8916067179417       1016.6744740919751       1018.0700551893526       1019.1749006334439
1.4211886304909576        1011.7010311799845       1014.023039791361        1015.8023161889672       1017.1944826132451       1018.2959029193323
1.5503875968992265        1010.836303463082        1013.1544728647804       1014.9301582859595       1016.3189100371377       1017.4169052052208
1.6795865633074953        1009.9731908376951       1012.2906370217632       1014.0653503427866       1015.4532647716851       1016.5507131843622
1.8087855297157642        1009.110078212308        1011.4268011787459       1013.2005423996136       1014.5876195062323       1015.6845211635033
1.937984496124033         1008.246965586921        1010.5629653357287       1012.3357344564406       1013.7219742407794       1014.8183291426444
2.0671834625323022        1007.3654617715853       1009.6758446156301       1011.4440138329569       1012.8266788912738       1013.920416716767
2.1963824289405713        1006.4839579562495       1008.7887238955315       1010.552293209473        1011.931383541768        1013.0225042908895
2.32558139534884          1005.6024541409137       1007.9016031754329       1009.6605725859891       1011.0360881922624       1012.124591865012
2.4547803617571087        1004.6962700236962       1006.986128240416        1008.7380300438222       1010.10817092218         1011.1925557130667
2.583979328165377         1003.7900859064786       1006.0706533053989       1007.815487501655        1009.1802536520976       1010.2605195611211
2.7131782945736456        1002.8839017892609       1005.1551783703818       1006.8929449594879       1008.2523363820152       1009.3284834091755
2.842377260981915         1001.9342317430951       1004.1983547533092       1005.9298805537348       1007.2838781887391       1008.3553926887801
2.9715762273901842        1000.9845616969292       1003.2415311362364       1004.9668161479816       1006.3154199954629       1007.3823019683845
3.1007751937984533        1000.0348916507633       1002.2847075191637       1004.0037517422284       1005.3469618021868       1006.409211247989
3.229974160206722         999.0501755660586        1001.2894829041941       1002.9995627645603       1004.3352007464138       1005.3910902794684
3.3591731266149902        998.0654594813536        1000.2942582892242       1001.9953737868922       1003.3234396906405       1004.3729693109477
3.488372093023259         997.0807433966488        999.2990336742545        1000.991184809224        1002.3116786348672       1003.3548483424271
3.617571059431528         996.0791804095866        998.287062084003         999.9696453993969        1001.2813571599867       1002.3164485201886
3.7467700258397962        995.0776174225242        997.2750904937513        998.9481059895695        1000.251035685106        1001.27804869795
3.8759689922480653        994.0760544354619        996.2631189034998        997.9265665797421        999.2207142102254        1000.2396488757115
4.005167958656335         993.0751189823441        995.2542967042103        996.9104460802907        998.1980281593535        999.2111683191059
4.1343669250646045        992.0741835292262        994.2454745049207        995.8943255808392        997.1753421084816        998.1826877625002
4.263565891472873         991.0732480761084        993.2366523056312        994.8782050813877        996.1526560576096        997.1542072058945
4.392764857881143         990.0745394550996        992.2297186809235        993.864624099108         995.1336953800147        996.1309779622396
4.521963824289411         989.0758308340907        991.2227850562157        992.8510431168282        994.1147347024198        995.1077487185846
4.651162790697679         988.0771222130817        990.2158514315079        991.8374621345484        993.0957740248249        994.0845194749297
4.780361757105949         987.0880505080013        989.2173446811275        990.8318216234604        992.0846150018591        993.0690605016495
4.9095607235142165        986.0989788029208        988.2188379307471        989.8261811123723        991.0734559788933        992.0536015283691
5.038759689922486         985.1099070978404        987.2203311803668        988.8205406012842        990.0622969559275        991.0381425550887
5.167958656330756         984.120946735987         986.2193028230677        987.8107692759398        989.0459772368345        990.0167397329569
5.297157622739023         983.1319863741335        985.2182744657683        986.8009979505954        988.0296575177413        988.9953369108251
5.426356589147293         982.14302601228          984.217246108469         985.7912266252509        987.0133377986481        987.9739340886933
5.555555555555562         981.1279868202458        983.1844903141963        984.7450073312415        985.9565348515652        986.9085649992838
5.68475452196383          980.1129476282116        982.1517345199235        983.6987880372318        984.8997319044821        985.8431959098742
5.813953488372099         979.0979084361774        981.1189787256507        982.6525687432221        983.8429289573991        984.7778268204647
5.9431524547803685        978.0570466004303        980.0661663498131        981.5899416039422        982.7726041309926        983.7020003460316
6.072351421188636         977.0161847646831        979.0133539739753        980.5273144646621        981.702279304586         982.6261738715983
6.201550387596906         975.975322928936         977.9605415981375        979.4646873253822        980.6319544781794        981.5503473971651
6.330749354005175         974.9229684574391        976.90147619427          978.4001280813914        979.5631045792023        980.4783603126892
6.459948320413444         973.870613985942         975.8424107904024        977.3355688374004        978.4942546802251        979.4063732282134
6.589147286821714         972.818259514445         974.7833453865348        976.2710095934094        977.425404781248         978.3343861437376
6.718346253229982         971.7863632351099        973.7402525154739        975.2190823475825        976.3664969106638        977.2699489813411
6.84754521963825          970.7544669557745        972.6971596444129        974.1671551017553        975.3075890400796        976.2055118189447
6.976744186046519         969.7225706764393        971.6540667733518        973.1152278559282        974.2486811694955        975.1410746565483
7.105943152454788         968.7067034109077        970.6298446042427        972.0842042162024        973.2119098504621        974.0992584833479
7.235142118863057         967.690836145376         969.6056224351336        971.0531805764764        972.1751385314287        973.0574423101473
7.364341085271326         966.6749688798443        968.5814002660245        970.0221569367504        971.1383672123953        972.0156261369467
7.493540051679595         965.6850920106817        967.5844249573522        969.0199426471166        970.1319278980228        971.0053626647036
7.622739018087865         964.695215141519         966.5874496486799        968.0177283574826        969.1254885836502        969.9950991924604
7.751937984496134         963.7053382723565        965.5904743400076        967.0155140678487        968.1190492692775        968.9848357202172
7.881136950904403         962.7397669190652        964.6175972449079        966.0374613229375        967.136997384243         967.9992503528041
8.01033591731267          961.7741955657738        963.6447201498081        965.059408578026         966.1549454992083        967.0136649853907
8.13953488372094          960.8086242124824        962.6718430547083        964.0813558331146        965.1728936141737        966.0280796179774
8.268733850129209         959.8654125624223        961.7227100432966        963.1277548021937        964.2155954578342        965.0673400393489
8.397932816537477         958.9222009123621        960.7735770318848        962.1741537712728        963.2582973014945        964.1066004607202
8.527131782945746         957.9789892623019        959.8244440204729        961.2205527403519        962.300999145155         963.1458608820916
8.656330749354014         957.0659290919505        958.9061106217027        960.2980557533424        961.3749128215532        962.2163489691753
8.785529715762284         956.152868921599         957.9877772229324        959.3755587663327        960.4488264979512        961.286837056259
8.914728682170551         955.2398087512476        957.0694438241621        958.453061779323         959.5227401743495        960.3573251433426
9.043927648578821         954.3436220823162        956.1682488861571        957.5482368584849        958.6149582519614        959.4467347681087
9.17312661498709          953.4474354133847        955.267053948152         956.6434119376466        957.7071763295731        958.5361443928747
9.30232558139536          952.5512487444532        954.3658590101469        955.7385870168085        956.7993944071849        957.6255540176408
9.43152454780363          951.6671753735658        953.4762955482954        954.845905865058         955.904830709876         956.7296382841315
9.5607235142119           950.7831020026782        952.5867320864438        953.9532247133072        955.010267012567         955.833722550622
9.689922480620167         949.8990286317908        951.6971686245923        953.0605435615565        954.1157033152582        954.9378068171127
9.819121447028435         949.04021487795          950.8298962758928        952.1881645224652        953.2403724131082        954.0609258562281
9.948320413436702         948.181401124109         949.962623927193         951.3157854833736        952.3650415109581        953.1840448953434
10.07751937984497         947.3225873702681        949.0953515784933        950.4434064442821        951.4897106088081        952.3071639344587
10.20671834625324         946.4853328647104        948.2525185406649        949.596287851743         950.6393793314236        951.454525420973
10.335917312661508        945.6480783591524        947.4096855028364        948.7491692592038        949.7890480540391        950.6018869074873
10.465116279069777        944.8108238535945        946.566852465008         947.9020506666645        948.9387167766546        949.7492483940016
10.594315245478047        944.0026511492139        945.7526674011558        947.0835830793529        948.1171172472216        948.9254635546165
10.723514211886316        943.1944784448331        944.9384823373035        946.2651154920412        947.2955177177885        948.1016787152312
10.852713178294584        942.3863057404523        944.1242972734514        945.4466479047295        946.4739181883554        947.277893875846
10.981912144702854        941.6007598280065        943.3325653509107        944.6504903638277        945.6746470807686        946.4766178108437
11.111111111111123        940.8152139155607        942.54083342837          943.8543328229257        944.8753759731817        945.6753417458411
11.240310077519393        940.0296680031149        941.7491015058292        943.0581752820237        944.0761048655949        944.8740656808387
11.369509043927664        939.2666559874974        940.9804239079016        942.2855969741834        943.3009860885523        944.0975600587058
11.49870801033593         938.5036439718798        940.2117463099738        941.5130186663428        942.5258673115096        943.3210544365727
11.6279069767442          937.7406319562622        939.4430687120462        940.7404403585023        941.750748534467         942.5445488144396
11.75710594315247         937.0026191559538        938.69772511987          939.9895266535001        940.9956781591359        941.7865691434694
11.886304909560737        936.2646063556452        937.9523815276938        939.2386129484978        940.2406077838045        941.028589472499
12.015503875969006        935.5265935553368        937.2070379355175        938.4876992434955        939.4855374084733        940.2706098015286
12.144702842377276        934.8132653048625        936.4862345353298        937.7613576954806        938.7552789265549        939.5378996158385
12.273901808785542        934.0999370543881        935.7654311351419        937.0350161474654        938.0250204446363        938.8051894301482
12.403100775193812        933.3866088039136        935.044627734954         936.3086745994503        937.2947619627178        938.072479244458
12.532299741602081        932.6833547462253        934.3366820320705        935.5970199101774        936.5800329687986        937.3550818535082
12.661498708010349        931.9801006885368        933.6287363291868        934.8853652209044        935.8653039748792        936.6376844625582
12.790697674418618        931.2768466308484        932.9207906263032        934.1737105316314        935.1505749809598        935.9202870716083
12.919896640826888        930.5921084520958        932.2325100267249        933.4831280185055        934.4585808991163        935.227435944616
13.049095607235154        929.907370273343         931.5442294271463        932.7925455053794        933.7665868172726        934.5345848176235
13.178294573643424        929.2226320945902        930.8559488275678        932.1019629922534        933.074592735429         933.841733690631
13.307493540051695        928.5511109068503        930.1823765753824        931.4270209454768        932.3987506259092        933.1652941146721
13.436692506459964        927.8795897191104        929.5088043231967        930.7520788987           931.7229085163893        932.488854538713
13.565891472868234        927.2080685313706        928.8352320710112        930.0771368519232        931.0470664068695        931.8124149627539
13.695090439276504        926.555991159578         928.1831162900856        929.4250725394602        930.3950281233856        931.1603797816626
13.824289405684771        925.9039137877853        927.5310005091599        928.773008226997         929.7429898399015        930.5083446005713
13.953488372093037        925.2518364159927        926.8788847282342        928.120943914534         929.0909515564174        929.8563094194799
14.082687338501309        924.6228714634995        926.2481378654351        927.4889318439997        928.4578837468223        929.2222664943753
14.211886304909578        923.9939065110062        925.6173910026358        926.8569197734652        927.8248159372271        928.5882235692706
14.341085271317848        923.364941558513         924.9866441398366        926.2249077029308        927.191748127632         927.9541806441658
14.470284237726116        922.7521029357473        924.370825369276         925.6067299525621        926.5715312624062        927.3320971137285
14.59948320413438         922.1392643129815        923.7550065987151        924.9885522021932        925.9513143971803        926.710013583291
14.728682170542646        921.5264256902158        923.1391878281543        924.3703744518244        925.3310975319545        926.0879300528536
14.857881136950917        920.9287669659883        922.5370491901531        923.7643545175118        924.7215230264685        925.4749990951832
14.987080103359187        920.3311082417606        921.9349105521517        923.1583345831991        924.1119485209824        924.8620681375126
15.11627906976746         919.733449517533         921.3327719141504        922.5523146488864        923.5023740154965        924.249137179842
15.245478036175728        919.1575169024817        920.7525059739438        921.9682744747419        922.9148888993894        923.658434856699
15.374677002583995        918.5815842874301        920.172240033737         921.3842343005973        922.3274037832823        923.067732533556
15.503875968992261        918.0056516723786        919.5919740935303        920.8001941264528        921.7399186671753        922.4770302104129
15.633074935400531        917.4500817563594        919.0321212089808        920.2366337154216        921.1730220062282        921.9070787809133
15.762273901808802        916.89451184034          918.4722683244311        919.6730733043903        920.6061253452809        921.3371273514134
15.891472868217072        916.3389419243207        917.9124154398814        919.109512893359         920.0392286843337        920.7671759219137
16.02067183462534         915.7995569368132        917.369340418001         918.5633324756408        919.4903231861236        920.2158247996696
16.149870801033607        915.2601719493057        916.8262653961203        918.0171520579224        918.9414176879135        919.6644736774253
16.279069767441875        914.7207869617982        916.2831903742398        917.4709716402042        918.3925121897034        919.1131225551811
16.408268733850143        914.1971000973032        915.7564179220624        916.9416977775858        917.8611134804253        918.5798636511478
16.537467700258414        913.6734132328081        915.2296454698848        916.4124239149672        917.3297147711469        918.0466047471143
16.666666666666682        913.149726368313         914.7028730177072        915.8831500523487        916.7983160618686        917.5133458430809
16.795865633074953        912.6406854066315        914.1912856585568        915.3695511839437        916.2830573829443        916.9966841584787
16.925064599483225        912.1316444449499        913.6796982994061        914.8559523155386        915.7677987040199        916.4800224738765
17.054263565891493        911.6226034832683        913.1681109402556        914.3423534471336        915.2525400250955        915.9633607892742
17.18346253229976         911.1287434945773        912.6720433508601        913.8445770853598        914.7533848433598        915.4630722579636
17.312661498708025        910.634883505886         912.1759757614645        913.346800723586         914.2542296616239        914.9627837266528
17.441860465116292        910.1410235171949        911.679908172069         912.8490243618121        913.7550744798881        914.462495195342
17.57105943152456         909.6641071114725        911.2004854694616        912.3675470000755        913.2718399956774        913.9777280122325
17.700258397932828        909.18719070575          910.7210627668541        911.886069638339         912.7886055114666        913.4929608291229
17.829457364341096        908.7102743000275        910.2416400642466        911.4045922766024        912.3053710272558        913.0081936460134
17.958656330749367        908.2446829302343        909.774522077268         910.9363582967495        911.8362945214166        912.5384893872274
18.08785529715763         907.779091560441         909.3074040902893        910.4681243168966        911.3672180155772        912.0687851284413
18.217054263565903        907.3135001906477        908.8402861033107        909.9998903370437        910.8981415097379        911.5990808696553
18.34625322997417         906.8572396692048        908.3832545638431        909.5425250734958        910.4407236434674        911.1418101538183
18.47545219638244         906.4009791477617        907.9262230243754        909.0851598099478        909.9833057771967        910.6845394379812
18.604651162790717        905.9447186263188        907.4691914849077        908.6277945463997        909.5258879109261        910.2272687221442
18.73385012919898         905.5038710684629        907.0270533059654        908.1848242907029        909.0823711845474        909.7833887144935
18.863049095607252        905.0630235106069        906.5849151270231        907.7418540350058        908.6388544581685        909.3395087068427
18.992248062015516        904.6221759527508        906.1427769480808        907.2988837793088        908.1953377317897        908.895628699192
19.12144702842379         904.1951783177296        905.7143360955262        906.8694492740213        907.7651925670069        908.4649529697174
19.25064599483206         903.7681806827084        905.2858952429714        906.4400147687338        907.3350474022241        908.0342772402427
19.379844961240327        903.3411830476871        904.8574543904167        906.0105802634464        906.9049022374412        907.6036015107679
19.509043927648598        902.9288292422895        904.4434034569606        905.5952968420739        906.4886877622047        907.1866456342173
19.638242894056862        902.5164754368917        904.0293525235043        905.1800134207014        906.0724732869679        906.7696897576666
19.76744186046513         902.1041216314941        903.6153015900479        904.7647299993288        905.6562588117313        906.3527338811159
19.896640826873405        901.7050162722321        903.2142046706424        904.3622144428936        905.2526994294601        905.9483865447932
20.025839793281673        901.3059109129701        902.8131077512367        903.9596988864582        904.8491400471887        905.5440392084703
20.155038759689944        900.9068055537082        902.412010831831         903.5571833300229        904.4455806649174        905.1396918721475
20.284237726098212        900.5209431951233        902.0239646120921        903.1676153419295        904.0549377794591        904.7482950076192
20.413436692506476        900.1350808365384        901.635918392353         902.7780473538359        903.6642948940007        904.3568981430907
20.542635658914744        899.7492184779534        901.2478721726139        902.3884793657423        903.2736520085423        903.9655012785622
20.671834625323015        899.3745377771863        900.8710903938542        902.0102835945929        902.894508311215         903.5857353408485
20.801033591731287        898.9998570764192        900.4943086150943        901.6320878234433        902.5153646138874        903.2059694031346
20.930232558139554        898.625176375652         900.1175268363344        901.2538920522937        902.1362209165599        902.8262034654209
21.059431524547826        898.2619431810182        899.7523202202308        900.8874038747715        901.7689177536982        902.4584037189518
21.188630490956093        897.8987099863842        899.3871136041271        900.520915697249         901.4016145908365        902.0906039724824
21.317829457364358        897.5354767917503        899.0219069880234        900.1544275197266        901.0343114279748        901.7228042260131
21.44702842377263         897.1830741206222        898.6675446904818        899.7987817342695        900.6778309329359        901.3657889111287
21.576227390180897        896.830671449494         898.3131823929401        899.4431359488123        900.3213504378969        901.0087735962442
21.705426356589168        896.478268778366         897.9588200953986        899.087490163355         899.9648699428578        900.6517582813598
21.83462532299744         896.1373146484798        897.6159063261091        898.7432788014409        899.6197919530445        900.306094793204
21.9638242894057          895.7963605185934        897.2729925568195        898.3990674395264        899.2747139632311        899.9604313050481
22.09302325581397         895.455406388707         896.93007878753          898.0548560776122        898.9296359734177        899.6147678168923
22.22222222222224         895.1253035899792        896.5979454342662        897.7213598343142        898.5952088345945        899.2796878610907
22.35142118863051         894.7952007912513        896.2658120810023        897.3878635910161        898.2607816957712        898.944607905289
22.48062015503878         894.4650979925234        895.9336787277384        897.054367347718         897.926354556948         898.6095279494874
22.609819121447046        894.1466523397183        895.6130840545828        896.7323314336251        897.6033338322957        898.2858086086627
22.739018087855317        893.8282066869132        895.2924893814271        896.4102955195322        897.2803131076432        897.962089267838
22.868217054263585        893.5097610341081        894.9718947082714        896.0882596054392        896.9572923829909        897.6383699270133
22.997416020671853        893.2012066781061        894.6612064599607        895.7761093928683        896.6441136303137        897.3244405654208
23.12661498708012         892.892652322104         894.3505182116498        895.4639591802973        896.3309348776362        897.0105112038282
23.255813953488385        892.5840979661019        894.0398299633391        895.1518089677262        896.0177561249587        896.6965818422356
23.38501291989666         892.2861857359376        893.739704857128         894.8501138888759        895.7149101753874        896.3928655798711
23.51421188630493         891.9882735057732        893.4395797509167        894.5484188100254        895.412064225816         896.0891493175066
23.643410852713203        891.6903612756089        893.1394546447054        894.246723731175         895.1092182762447        895.7854330551421
23.772609819121474        891.4016721777843        892.8483449133045        893.9538499489882        894.8150105996646        895.4901794328665
23.901808785529735        891.1129830799598        892.5572351819033        893.6609761668014        894.5208029230843        895.1949258105908
24.031007751938           890.8242939821353        892.266125450502         893.3681023846146        894.226595246504         894.8996721883152
24.16020671834627         890.5444429080795        891.9842455983553        893.0847123056238        893.9419871241334        894.6139962357895
24.28940568475454         890.2645918340237        891.7023657462083        892.801322226633         893.6573790017627        894.3283202832636
24.418604651162813        889.9847407599678        891.4204858940615        892.5179321476422        893.3727708793921        894.0426443307376
24.547803617571084        889.7131750115307        891.147168956514         892.2432503453023        893.0969047255718        893.765651029014
24.67700258397935         889.4416092630934        890.8738520189663        891.9685685429623        892.8210385717514        893.4886577272902
24.806201550387616        889.1700435146562        890.6005350814188        891.6938867406224        892.545172417931         893.2116644255664
24.935400516795887        888.906689883878         890.3356463569191        891.4277537823207        892.2778765799062        892.9431543269492
25.064599483204155        888.6433362530998        890.0707576324195        891.1616208240189        892.0105807418812        892.6746442283319
25.193798449612423        888.3799826223217        889.8058689079198        890.8954878657171        891.7432849038562        892.4061341297146
25.32299741602069         888.1240919134066        889.548919429501         890.637536943752         891.4842131297887        892.1457038489821
25.45219638242895         887.8682012044914        889.291969951082         890.3795860217867        891.2251413557211        891.8852735682495
25.581395348837223        887.6123104955763        889.0350204726632        890.1216350998216        890.9660695816535        891.624843287517
25.710594315245494        887.3627964169501        888.7845162101053        889.870287737381         890.7139522359934        891.371983334035
25.839793281653755        887.1132823383239        888.5340119475471        889.6189403749403        890.461834890333         891.1191233805529
25.968992248062026        886.8637682596976        888.2835076849891        889.3675930124996        890.2097175446726        890.8662634270707
26.098191214470294        886.6203144283631        888.0392834826109        889.1228902073584        889.9648117490473        890.6214242516712
26.227390180878565        886.3768605970287        887.7950592802325        888.878187402217         889.7199059534217        890.3765850762715
26.356589147286837        886.1334067656942        887.5508350778542        888.6334845970757        889.4750001577963        890.1317459008718