% Model:              Cav_Hex_Unif_flux_v5.1.2 - Wall Distn.mph
% Version:            COMSOL 5.5.0.359
% Date:               Nov 23 2021, 11:37
% Dimension:          1
% Nodes:              430
% Expressions:        5
% Description:        Line graph
% x                       Height                   Height                   Height                   Height                   Height
0                         1157.6124569046438       1160.5800258786653       1162.9326509482628       1164.8365994742983       1166.3826479097747
0.2331002331002331        1155.791422862662        1158.7657045574263       1161.1257376584063       1163.0379594431663       1164.5932513079285
0.4662004662004662        1153.9703888206802       1156.951383236187        1159.3188243685497       1161.2393194120343       1162.8038547060821
0.6993006993006993        1152.1493547786986       1155.1370619149477       1157.5119110786932       1159.4406793809023       1161.0144581042357
0.9324009324009324        1150.8227096286419       1153.8261977151158       1156.2171247642061       1158.1629253433484       1159.7549683237548
1.1655011655011656        1149.4960644785851       1152.5153335152836       1154.9223384497188       1156.8851713057945       1158.495478543274
1.3986013986013985        1148.1694193285284       1151.2044693154517       1153.6275521352318       1155.6074172682406       1157.235988762793
1.6317016317016317        1147.1386669978376       1150.191786701064        1152.631691498955        1154.628392246299        1156.2743495624077
1.8648018648018643        1146.1079146671466       1149.1791040866763       1151.6358308626782       1153.649367224357        1155.312710362022
2.0979020979020975        1145.0771623364558       1148.1664214722884       1150.6399702264014       1152.6703422024154       1154.3510711616366
2.3310023310023307        1144.106062374083        1147.212234701615        1149.6985055262053       1151.7395092332833       1153.4300412203356
2.5641025641025634        1143.13496241171         1146.2580479309413       1148.7570408260092       1150.808676264151        1152.5090112790344
2.797202797202796         1142.163862449337        1145.3038611602676       1147.815576125813        1149.8778432950187       1151.5879813377333
3.03030303030303          1141.2561853621582       1144.4093965073612       1146.9321311273436       1149.0048557873758       1150.7260466234366
3.2634032634032635        1140.3485082749794       1143.514931854455        1146.0486861288741       1148.1318682797328       1149.8641119091399
3.4965034965034967        1139.4408311878005       1142.6204672015485       1145.1652411304046       1147.25888077209         1149.0021771948432
3.7296037296037294        1138.3734476712782       1141.5715502708724       1144.13001131219         1146.2346133563042       1147.9879715835493
3.962703962703962         1137.3060641547556       1140.5226333401963       1143.094781493975        1145.2103459405182       1146.9737659722557
4.195804195804195         1136.2386806382333       1139.4737164095202       1142.0595516757603       1144.1860785247322       1145.9595603609619
4.428904428904428         1135.0216161986987       1138.2672913431495       1140.8599149756049       1142.9911917298705       1144.769268867729
4.6620046620046605        1133.8045517591638       1137.0608662767786       1139.6602782754494       1141.7963049350087       1143.5789773744957
4.895104895104893         1132.587487319629        1135.8544412104077       1138.460641575294        1140.601418140147        1142.3886858812627
5.128205128205128         1131.2641867807529       1134.5407085175848       1137.154540002825        1139.3019880773882       1141.096247482081
5.3613053613053605        1129.9408862418766       1133.2269758247617       1135.848438430356        1138.0025580146296       1139.803809082899
5.594405594405594         1128.6175857030005       1131.9132431319388       1134.542336857887        1136.7031279518708       1138.5113706837174
5.827505827505827         1127.1542863116042       1130.4481329463813       1133.0742206388582       1135.23162116846         1137.036910909437
6.060606060606059         1125.6909869202077       1128.9830227608236       1131.6061044198293       1133.7601143850488       1135.5624511351564
6.2937062937062915        1124.2276875288112       1127.517912575266        1130.1379882008005       1132.288607601638        1134.087991360876
6.526806526806525         1122.661110742759        1125.932249706777        1128.5343524419482       1130.668629860939        1132.4538152099674
6.759906759906759         1121.0945339567068       1124.3465868382877       1126.9307166830956       1129.0486521202404       1130.8196390590588
6.9930069930069925        1119.5279571706546       1122.7609239697986       1125.3270809242433       1127.4286743795415       1129.1854629081502
7.226107226107226         1117.7793587614858       1121.013061483936        1123.5764701639894       1125.6732099503681       1127.4241421248596
7.459207459207458         1116.030760352317        1119.2651989980736       1121.8258594037354       1123.9177455211945       1125.662821341569
7.692307692307692         1114.2821619431481       1117.5173365122112       1120.0752486434815       1122.1622810920212       1123.9015005582785
7.925407925407924         1112.4429668491753       1115.6731502098994       1118.2251982923447       1120.3063010364729       1122.0400144466182
8.158508158508157         1110.6037717552024       1113.8289639075876       1116.3751479412076       1118.4503209809247       1120.178528334958
8.391608391608388         1108.7645766612295       1111.984777605276        1114.5250975900708       1116.5943409253764       1118.3170422232977
8.624708624708623         1106.8200277753472       1110.0198974965326       1112.543025590888        1114.5980808765794       1116.3094246961514
8.857808857808857         1104.8754788894648       1108.0550173877891       1110.560953591705        1112.6018208277821       1114.3018071690049
9.09090909090909          1102.9309300035825       1106.0901372790458       1108.5788815925218       1110.605560778985        1112.2941896418583
9.324009324009324         1100.8401797520112       1103.9964095119694       1106.481905106322        1108.5053629109036       1110.1910445026817
9.557109557109555         1098.7494295004399       1101.9026817448928       1104.3849286201223       1106.405165042822        1108.0878993635051
9.79020979020979          1096.6586792488686       1099.8089539778164       1102.2879521339225       1104.3049671747408       1105.9847542243285
10.023310023310023        1094.5015548860245       1097.6500792495297       1100.1244067162447       1102.1350357561475       1103.80737014422
10.256410256410257        1092.34443052318         1095.4912045212427       1097.9608612985671       1099.9651043375543       1101.629986064111
10.48951048951049         1090.1873061603358       1093.3323297929558       1095.7973158808893       1097.795172918961        1099.4526019840023
10.722610722610721        1088.031510020725        1091.1630672390545       1093.6139369526638       1095.5972226992792       1097.2395653016843
10.955710955710956        1085.875713881114        1088.993804685153        1091.4305580244381       1093.3992724795971       1095.0265286193662
11.188811188811187        1083.7199177415032       1086.8245421312515       1089.2471790962124       1091.2013222599153       1092.8134919370482
11.42191142191142         1081.5661750638862       1084.6509647913706       1087.05541051206         1088.992736857146        1090.5892499576908
11.65501165501165         1079.412432386269        1082.47738745149         1084.8636419279073       1086.7841514543766       1088.365007978333
11.888111888111883        1077.2586897086521       1080.303810111609        1082.671873343755        1084.5755660516072       1086.1407659989757
12.121212121212116        1075.1465229469088       1078.1631907365208       1080.5087671276376       1082.3937916106186       1083.9426537286292
12.35431235431235         1073.0343561851655       1076.0225713614325       1078.34566091152         1080.2120171696297       1081.7445414582826
12.587412587412583        1070.9221894234222       1073.8819519863443       1076.1825546954026       1078.030242728641        1079.5464291879362
12.820512820512816        1068.8072502660516       1071.7431620110149       1074.0258710595854       1075.8593696484656       1077.363553441256
13.053613053613049        1066.6923111086808       1069.6043720356852       1071.869187423768        1073.68849656829         1075.180677694576
13.286713286713281        1064.5773719513102       1067.4655820603557       1069.7125037879505       1071.5176234881144       1072.9978019478958
13.519813519813518        1062.4767456005013       1065.342843607183        1067.5727986620007       1069.364509414039        1070.8338774911444
13.75291375291375         1060.3761192496922       1063.2201051540105       1065.433093536051        1067.211395339964        1068.6699530343928
13.986013986013985        1058.2754928988834       1061.097366700838        1063.2933884101012       1065.0582812658886       1066.5060285776412
14.219114219114218        1056.1710208099985       1058.9683490243276       1061.144884296461        1062.8938001169288       1064.3281363501696
14.452214452214449        1054.0665487211133       1056.839331347817        1058.9963801828205       1060.729318967969        1062.150244122698
14.68531468531468         1051.9620766322282       1054.7103136713065       1056.84787606918         1058.5648378190092       1059.9723518952264
14.918414918414914        1049.8545015174986       1052.5806592692397       1054.701615266831        1056.40581757256         1057.8033553712676
15.151515151515147        1047.7469264027688       1050.4510048671727       1052.5553544644815       1054.2467973261105       1055.6343588473085
15.38461538461538         1045.6393512880393       1048.321350465106        1050.4090936621324       1052.0877770796612       1053.4653623233496
15.617715617715614        1043.6093111203586       1046.263001760497        1048.3286407084588       1049.9895671218012       1051.3526433435202
15.850815850815845        1041.5792709526777       1044.204653055888        1046.248187754785        1047.8913571639412       1049.2399243636905
16.08391608391608         1039.549230784997        1042.146304351279        1044.1677348011115       1045.7931472060811       1047.1272053838609
16.317016317016314        1037.5467565035542       1040.1207075846335       1042.1246890251102       1043.736949985828        1045.0614051193315
16.55011655011654         1035.5442822221114       1038.095110817988        1040.081643249109        1041.6807527655749       1042.9956048548022
16.783216783216776        1033.5418079406686       1036.0695140513424       1038.0385974731078       1039.6245555453218       1040.9298045902729
17.01631701631701         1031.568092913958        1034.0738689240366       1036.0274021263033       1037.602845638472        1038.9017007216924
17.24941724941724         1029.5943778872472       1032.0782237967305       1034.0162067794988       1035.5811357316225       1036.8735968531118
17.482517482517476        1027.6206628605366       1030.0825786694247       1032.0050114326943       1033.5594258247727       1034.8454929845313
17.71561771561771         1025.7040801284195       1028.1388672015294       1030.0411090263135       1031.5810105071914       1032.8573809291743
17.948717948717942        1023.7874973963025       1026.195155733634        1028.077206619933        1029.6025951896102       1030.869268873817
18.181818181818173        1021.8709146641854       1024.2514442657387       1026.113304213552        1027.624179872029        1028.8811568184599
18.41491841491841         1019.9879012064048       1022.351476918002        1024.2009280863383       1025.7029333909911       1026.9538422847727
18.648018648018645        1018.104887748624        1020.4515095702653       1022.2885519591244       1023.7816869099532       1025.0265277510855
18.881118881118876        1016.2218742908433       1018.5515422225286       1020.3761758319106       1021.8604404289154       1023.0992132173983
19.11421911421911         1014.3915713881397       1016.7030568462584       1018.5139397614286       1019.9875275045757       1021.2177379230366
19.347319347319342        1012.5612684854361       1014.8545714699882       1016.6517036909464       1018.114614580236        1019.3362626286747
19.580419580419576        1010.7309655827326       1013.006086093718        1014.7894676204643       1016.2417016558962       1017.4547873343129
19.813519813519807        1008.9359612342656       1011.1977733378478       1012.9705120055894       1014.4136381850975       1015.61839109759
20.04662004662004         1007.1409568857987       1009.3894605819776       1011.1515563907143       1012.5855747142987       1013.781994860867
20.279720279720273        1005.3459525373318       1007.5811478261073       1009.3326007758393       1010.7575112435          1011.9455986241442
20.51282051282051         1003.5960205729579       1005.815597340322        1007.553771970646        1008.9668240490977       1010.1440554028256
20.745920745920742        1001.8460886085838       1004.0500468545366       1005.7749431654527       1007.1761368546954       1008.3425121815069
20.979020979020977        1000.0961566442098       1002.2844963687513       1003.9961143602594       1005.3854496602931       1006.5409689601883
21.21212121212121         998.3765517027348        1000.549781812351        1002.2492247814283       1003.6282051847536       1004.7747261394974
21.445221445221442        996.6569467612595        998.8150672559505        1000.5023352025972       1001.8709607092139       1003.0084833188063
21.678321678321677        994.9373418197844        997.08035269955          998.7554456237661        1000.1137162336743       1001.2422404981152
21.91142191142191         993.2549961099336        995.3807281895258        997.0423663959014        998.3892912742326        999.5076892390995
22.144522144522142        991.5726504000827        993.6811036795016        995.3292871680366        996.6648663147909        997.7731379800836
22.377622377622373        989.8903046902318        991.9814791694773        993.6162079401718        994.9404413553491        996.0385867210678
22.610722610722608        988.2413224311315        990.3163597474932        991.93845614358          993.2519173613003        994.340335545804
22.84382284382284         986.592340172031         988.6512403255088        990.2607043469881        991.5633933672514        992.6420843705401
23.07692307692307         984.9433579129305        986.9861209035245        988.5829525503962        989.8748693732025        990.9438331952764
23.3100233100233          983.345395723936         985.3734530532738        986.9585992757815        988.240681747065         989.3010420036954
23.54312354312353         981.7474335349414        983.7607852030229        985.3342460011667        986.6064941209273        987.6582508121144
23.776223776223766        980.1494713459467        982.148117352772         983.709892726552         984.9723064947897        986.0154596205334
24.009324009324           978.599803164438         980.5902285625231        982.1436559330541        983.3982339460289        984.4342396500211
24.242424242424235        977.0501349829291        979.0323397722739        980.5774191395561        981.824161397268         982.8530196795087
24.47552447552447         975.5004668014203        977.4744509820248        979.0111823460581        980.2500888485072        981.2717997089964
24.708624708624708        974.003304414201         975.9679787380388        977.4957096551997        978.7262492175848        979.7403107902721
24.94172494172493         972.5061420269816        974.4615064940527        975.9802369643411        977.2024095866623        978.2088218715478
25.174825174825166        971.0089796397622        972.9550342500668        974.4647642734826        975.6785699557397        976.6773329528235
25.4079254079254          969.5508576487821        971.4869699365953        972.9859054091412        974.1885612448988        975.176178746959
25.641025641025628        968.092735657802         970.0189056231237        971.5070465447997        972.6985525340576        973.6750245410943
25.87412587412586         966.6346136668219        968.5508413096521        970.0281876804581        971.2085438232166        972.1738703352297
26.1072261072261          965.2077883933175        967.1162828607997        968.5860773132171        969.7593429127369        970.718259266903
26.340326340326335        963.780963119813         965.6817244119471        967.1439669459759        968.3101420022571        969.2626481985761
26.573426573426566        962.3541378463086        964.2471659630946        965.7018565787348        966.8609410917774        967.8070371302493
26.8065268065268          960.9660353683722        962.8513554004697        964.2994550381459        965.4530062594587        966.394593252726
27.03962703962703         959.5779328904356        961.4555448378446        962.8970534975568        964.0450714271399        964.9821493752027
27.272727272727263        958.1898304124991        960.0597342752196        961.4946519569678        962.6371365948211        963.5697054976793
27.505827505827494        956.836054411434         958.6989710626762        960.1291038307227        961.2682888401582        962.1983929510136
27.73892773892773         955.4822784103687        957.3382078501324        958.7635557044774        959.8994410854953        960.8270804043478
27.97202797202796         954.1285024093035        955.9774446375889        957.3980075782322        958.5305933308323        959.4557678576821
28.205128205128194        952.8070060861836        954.6478309277455        956.0632582281718        957.1926876933215        958.1158705227988
28.438228438228425        951.4855097630635        953.3182172179021        954.7285088781111        955.8547820558107        956.7759731879154
28.67132867132866         950.1640134399436        951.9886035080586        953.3937595280505        954.5168764182998        955.436075853032
28.904428904428894        948.8765136277336        950.6967466147431        952.099301804071         953.2210119847905        954.1395861739917
29.13752913752912         947.5890138155235        949.4048897214274        950.8048440800914        951.9251475512812        952.8430964949512
29.370629370629352        946.3015140033134        948.1130328281117        949.5103863561118        950.6292831177718        951.5466068159106
29.60372960372959         945.0502639388301        946.8588667339409        948.2548573459102        949.3737596953565        950.2923574670725
29.83682983682982         943.7990138743465        945.6047006397699        946.9993283357085        948.1182362729411        949.0381081182342
30.069930069930056        942.5477638098631        944.350534545599         945.7437993255069        946.8627128505257        947.7838587693959
30.30303030303029         941.3060342947232        943.1074755854048        944.5007298288955        945.620588783232         946.5433499789348
30.536130536130525        940.064304779583         941.8644166252105        943.257660332284         944.3784647159382        945.3028411884735
30.769230769230756        938.822575264443         940.6213576650164        942.0145908356725        943.1363406486445        944.0623323980124
31.00233100233099         937.6173735582934        939.4143266183754        940.8062147795584        941.9267944436385        942.851582430493
31.235431235431218        936.4121718521436        938.2072955717342        939.5978387234442        940.7172482386324        941.6408324629735
31.468531468531452        935.2069701459939        937.0002645250931        938.38946266733          939.5077020336263        940.4300824954541
31.701631701631683        934.0463095750587        935.8367415591364        937.2235796869651        938.3396363399133        939.2598366220564
31.934731934731918        932.8856490041234        934.6732185931794        936.0576967066           937.1715706462003        938.0895907486585
32.16783216783215         931.7249884331881        933.5096956272224        934.8918137262351        936.0035049524872        936.9193448752607
32.40093240093238         930.6039253371208        932.3846845750643        933.7635325432744        934.872216476333         935.785116174152
32.63403263403262         929.4828622410536        931.259673522906         932.6352513603136        933.7409280001787        934.6508874730431
32.86713286713285         928.3617991449863        930.1346624707478        931.506970177353         932.6096395240244        933.5166587719342
33.10023310023308         927.2744403533463        929.0428667003926        930.4114021908795        931.5105850997845        932.4142306237629
33.333333333333314        926.1870815617062        927.9510709300372        929.3158342044057        930.4115306755446        931.3118024755915
33.566433566433545        925.0997227700661        926.8592751596818        928.2202662179321        929.3124762513046        930.2093743274202
33.79953379953378         924.044894267779         925.7995166807173        927.1561206107497        928.2442073756           929.1371478160056
34.03263403263402         922.9900657654917        924.7397582017526        926.091975003567         927.1759384998953        928.0649213045908
34.26573426573425         921.9352372632045        923.679999722788         925.0278293963843        926.1076696241907        926.992694793176
34.49883449883448         920.903545064524         922.6416935917854        923.983355590556         925.0572743298873        925.9365559481884
34.731934731934714        919.8718528658434        921.6033874607825        922.9388817847275        924.0068790355836        924.8804171032006
34.965034965034945        918.8401606671628        920.5650813297797        921.8944079788992        922.95648374128          923.8242782582128
35.19813519813519         917.8402665326153        919.5597418917417        920.8841426553514        921.9416325480845        922.8051031107343
35.43123543123542         916.8403723980676        918.5544024537037        919.8738773318036        920.9267813548888        921.7859279632557
35.66433566433565         915.8404782635201        917.5490630156656        918.8636120082558        919.9119301616931        920.7667528157772
35.89743589743589         914.8669263119994        916.5712032903301        917.881939301818         918.9266643980371        919.7780160577645
36.130536130536115        913.8933743604783        915.5933435649944        916.90026659538          917.941398634381         918.7892792997518
36.363636363636346        912.9198224089573        914.6154838396586        915.9185938889422        916.9561328707249        917.8005425417391
36.59673659673659         911.9740625244526        913.6664853264916        914.9666849140795        916.0012688998795        916.8426151339146
36.82983682983682         911.0283026399478        912.7174868133244        914.0147759392165        915.0464049290339        915.88468772609
37.06293706293705         910.082542755443         911.7684883001573        913.0628669643537        914.0915409581884        914.9267603182655
37.29603729603729         909.1612270735071        910.844919034256         912.1363194399972        913.1613143184394        913.9923004862194
37.529137529137515        908.239911391571         909.9213497683546        911.2097719156405        912.2310876786903        913.0578406541731
37.762237762237746        907.3185957096349        908.9977805024533        910.283224391284         911.3008610389412        912.1233808221269
37.99533799533799         906.423218111572         908.0997098829175        909.3823339982661        910.3967396380003        911.2154915327745
38.22843822843822         905.5278405135091        907.2016392633816        908.481443605248         909.4926182370593        910.3076022434219
38.46153846153846         904.6324629154461        906.3035686438457        907.58055321223          908.5884968361185        909.3997129540694
38.694638694638684        903.7635965952676        905.4316900688247        906.7059778841378        907.7113094466039        908.5199504492773
38.927738927738915        902.8947302750888        904.5598114938034        905.8314025560455        906.8341220570891        907.640187944485
39.160839160839146        902.0258639549102        903.6879329187823        904.9568272279533        905.9569346675744        906.7604254396927
39.393939393939384        901.1741990172021        902.8332834546093        904.1001475876891        905.0988972369792        905.9016464542419
39.627039627039615        900.3225340794938        901.978633990436         903.2434679474247        904.2408598063837        905.042867468791
39.86013986013985         899.4708691417856        901.1239845262629        902.3867883071604        903.3828223757884        904.1840884833401
40.093240093240084        898.6442855437026        900.2938541055779        901.5549283165855        902.5503730946616        903.3517766345132
40.326340326340315        897.8177019456195        899.4637236848928        900.7230683260105        901.7179238135348        902.519464785686
40.55944055944055         896.9911183475365        898.6335932642078        899.8912083354356        900.8854745324079        901.6871529368589
40.792540792540784        896.1878601431026        897.8276749053476        899.0841415407009        900.0782370803818        900.8803829708855
41.025641025641015        895.3846019386687        897.0217565464875        898.277074745966         899.2709996283556        900.0736130049121
41.25874125874124         894.5813437342347        896.2158381876274        897.4700079512312        898.4637621763295        899.2668430389388
41.49184149184147         893.8006956089257        895.4351444916078        896.6896338509237        897.6839633328964        898.4878764204134
41.72494172494171         893.0200474836167        894.6544507955882        895.909259750616         896.9041644894633        897.708909801888
41.958041958041946        892.2393993583078        893.8737570995687        895.1288856503083        896.1243656460301        896.9299431833626
42.19114219114218         891.4852327624002        893.1181636162551        894.3725370602398        895.3675678599648        896.1728644255244
42.42424242424241         890.7310661664926        892.3625701329412        893.6161884701711        894.6107700738994        895.415785667686
42.65734265734264         889.976899570585         891.6069766496274        892.8598398801024        893.853972287834         894.6587069098478
42.89044289044287         889.2419686323052        890.8688042188559        892.1196230569175        893.112185885016         893.9155241682371
43.12354312354311         888.5070376940253        890.1306317880842        891.3794062337324        892.3703994821977        893.1723414266262
43.35664335664334         887.7721067557454        889.3924593573125        890.6391894105474        891.6286130793796        892.4291586850154
43.58974358974358         887.0529256062963        888.6732705853092        889.9198497029158        890.9089812852314        891.7091637022638
43.82284382284381         886.333744456847         887.9540818133057        889.2005099952842        890.189349491083         890.9891687195121
44.055944055944046        885.6145633073976        887.2348930413024        888.4811702876526        889.4697176969347        890.2691737367604
44.28904428904429         884.9180460116646        886.5395134099574        887.785578290123         888.7732494585603        889.5715698099083
44.522144522144515        884.2215287159315        885.8441337786122        887.0899862925933        888.0767812201857        888.873965883056
44.755244755244746        883.5250114201984        885.1487541472671        886.3943942950636        887.3803129818111        888.1763619562039
44.98834498834499         882.8449298375864        884.4676078446913        885.7117981355323        886.6959486708811        887.4898826366455
45.22144522144522         882.1648482549741        883.7864615421154        885.0292019760006        886.0115843599509        886.8034033170869
45.45454545454545         881.4847666723618        883.1053152395394        884.346605816469         885.3272200490208        886.1169239975284
45.68764568764569         880.8208277849653        882.4392014518172        883.6786723867699        884.6576936072013        885.4459243519524
45.920745920745915        880.1568888975687        881.773087664095         883.0107389570707        883.9881671653817        884.7749247063763
46.153846153846146        879.4929500101721        881.1069738763728        882.3428055273715        883.3186407235622        884.1039250608002
46.386946386946384        878.8541675056789        880.4671559147582        881.7021935375974        882.6773109609416        883.461862679858
46.62004662004661         878.2153850011855        879.8273379531436        881.0615815478232        882.0359811983208        882.8198002989155
46.85314685314684         877.5766024966922        879.187519991529         880.4209695580489        881.3946514357           882.1777379179732
47.08624708624708         876.959158644816         878.5674734270758        879.7991453925877        880.7716186534539        881.5539229289782