% Model:              Cav_Hex_Unif_flux_v5.2.1 - Lin. Distn.mph
% Version:            COMSOL 5.5.0.359
% Date:               Apr 8 2022, 13:40
% Table:              Evaluation Group 1 - Global Powers - 
% P_to_m (kJ/kg)         Q_abs (W)                Q_BHS (W)                T_g_in (K)               T_g_out (K)              Q_rad_loss (W)           Q_rad_loss_int (W)       Q_rad_loss_front (W)     Q_abs_out (W)            Q_abs_in (W)             BHS_front (W)            BHS_interior (W)
100                      42.24704601221932        46.597753314944086       326.1298159293979        402.96526272358136       0.4349103871416509       0.35316345852417685      0.0817469286174728       59.6748475132238         -13.575838095621776      7.415192667081956        39.18256064786213
200                      43.930951852023924       46.59812819408444        330.1043807496781        486.4336909982765        0.8160610338445333       0.6592890775507045       0.1567719562938294       52.47371400662249        -6.783175772342503       7.415192667081956        39.182935527002485
300                      44.973258878296384       46.59812819408444        333.2601305164551        567.982813715492         1.2734151375002574       1.037700180966678        0.23571495653358038      49.72932609585079        -4.521531568699804       7.415192667081956        39.182935527002485
400                      45.65565333444489        46.59812819408444        336.2872330388082        647.082974611234         1.817484647298209        1.4951776177171363       0.3223070295810715       48.02529946038035        -3.390994960010359       7.415192667081956        39.182935527002485
500                      46.04983631402278        46.59812819408444        339.37232146161233       723.1693861995238        2.447908022616206        2.0309143810668653       0.4169936415493362       46.67599640225629        -2.7127390047559965      7.415192667081956        39.182935527002485
600                      46.20778386565778        46.59812819408444        342.5480425012279        795.9603583207364        3.1558153046532684       2.637267057662145        0.5185482469911208       45.47845223256945        -2.2605900710309927      7.415192667081956        39.182935527002485
700                      46.14875468981032        46.59812819408444        345.6905959967306        865.0606704429549        3.9274330178439456       3.3021687451283013       0.6252642727156502       44.3370728131049         -1.9376352728311992      7.415192667081956        39.182935527002485
