% Model:              Cav_Hex_Unif_flux_v5.1 - Base Case.mph
% Version:            COMSOL 5.5.0.359
% Date:               Nov 3 2021, 12:53
% Dimension:          1
% Nodes:              261
% Expressions:        7
% Description:        Line graph
% x                       Height                   Height                   Height                   Height                   Height                   Height                   Height
0                         318.0097813189107        317.9997773353668        317.9511850041552        317.9300868975555        317.9070464388221        317.8752086523749        317.866429005757
0.18549699883316212       318.0064442361708        317.96286458096733       317.84004228933225       317.73235993250154       317.59438271470805       317.4205139032133        317.2635031282043
0.37099399766632424       318.00310715343085       317.9259518265679        317.7288995745093        317.5346329674476        317.281718990594         316.9658191540517        316.66057725065156
0.5564909964994864        317.99977007069094       317.88903907216843       317.6177568596863        317.33690600239356       316.96905526648          316.51112440489004       316.0576513730988
0.7419879953326485        317.99643298795104       317.852126317769         317.50661414486336       317.1391790373396        316.65639154236595       316.05642965572844       315.4547254955461
0.9274849941658107        317.9610590675162        317.6884203953068        317.23293622862155       316.75303155091365       316.1665062644397        315.51195299375166       314.8675105818559
1.1129819929989728        317.9256851470814        317.5247144728447        316.9592583123797        316.36688406448764       315.6766209865135        314.96747633177483       314.28029566816576
1.2984789918321349        317.89031122664665       317.36100855038256       316.6855803961379        315.9807365780616        315.18673570858726       314.42299966979806       313.69308075447555
1.483975990665297         317.8549373062118        317.1973026279204        316.411902479896         315.59458909163567       314.696850430661         313.8785230078213        313.1058658407854
1.674094359971054         317.75567077387655       317.0746934375068        316.3556780605508        315.60440972683614       314.92189916820155       314.5351763515115        314.4160618798184
1.8642127292768105        317.65640424154134       316.95208424709324       316.2994536412057        315.6142303620366        315.1469479057421        315.19182969520165       315.7262579188514
2.054331098582567         317.55713770920613       316.8294750566796        316.2432292218605        315.6240509972371        315.37199664328256       315.8484830388918        317.0364539578844
2.244449467888324         317.45787117687087       316.706865866266         316.18700480251533       315.63387163243755       315.5970453808231        316.505136382582         318.34664999691745
2.436330901635048         317.43453201160935       316.85880050725297       316.61529865796666       316.42831060496945       316.88730462435143       318.423988950349         321.0869158322875
2.628212335381772         317.4111928463478        317.0107351482399        317.04359251341793       317.2227495775014        318.17756386787977       320.34284151811596       323.82718166765756
2.8200937691284964        317.3878536810862        317.16266978922687       317.47188636886926       318.0171885500333        319.4678231114081        322.261694085883         326.56744750302767
3.0119752028752202        317.3645145158247        317.3146044302138        317.9001802243206        318.81162752256523       320.75808235493645       324.18054665364997       329.3077133383977
3.2038566366219436        317.4683567615168        317.7717036005198        318.86322877819487       320.4140244844957        323.13428364376637       327.42128004515905       333.5191360730615
3.395738070368667         317.572199007209         318.22880277082584       319.82627733206914       322.01642144642614       325.51048493259634       330.6620134366682        337.73055880772523
3.5876195041153913        317.6760412529012        318.6859019411318        320.7893258859434        323.61881840835656       327.8866862214263        333.90274682817727       341.941981542389
3.7795009378621147        317.77988349859334       319.1430011114378        321.7523744398177        325.22121537028704       330.26288751025623       337.14348021968635       346.15340427705274
3.971734984497032         317.85679010152757       319.53112676765716       322.5397379119917        326.4861813384281        332.1946513403719        339.9014730397438        349.8623152653837
4.163969031131949         317.9336967044618        319.9192524238765        323.32710138416576       327.7511473065691        334.12641517048746       342.6594658598013        353.5712262537147
4.356203077766867         318.01060330739597       320.30737808009593       324.1144648563398        329.0161132747102        336.0581790006031        345.4174586798588        357.28013724204567
4.548437124401785         318.0875099103302        320.6955037363153        324.90182832851383       330.28107924285126       337.98994283071875       348.1754514999162        360.9890482303766
4.741376396813089         318.26371969537786       321.2721140591547        325.95540097710915       331.9381016508446        340.37386494258544       351.390919975061         365.0704506921146
4.934315669224393         318.4399294804255        321.8487243819941        327.00897362570447       333.59512405883794       342.7577870544522        354.60638845020577       369.1518531538527
5.127254941635698         318.6161392654732        322.4253347048335        328.0625462742998        335.2521464668313        345.14170916631895       357.8218569253505        373.2332556155907
5.320194214047002         318.79234905052084       323.00194502767295       329.1161189228951        336.9091688748246        347.52563127818564       361.0373254004953        377.3146580773287
5.5131334864583055        319.0569030483587        323.7977987615591        330.5480204726212        339.0937852677465        350.59059649013295       365.0554211901037        382.31112136817524
5.70607275886961          319.32145704619666       324.59365249544527       331.9799220223473        341.27840166066846       353.65556170208026       369.07351697971205       387.3075846590217
5.899012031280914         319.58601104403454       325.38950622933146       333.41182357207333       343.46301805359036       356.72052691402763       373.0916127693205        392.3040479498682
6.091951303692218         319.8505650418724        326.1853599632176        334.8437251217994        345.64763444651226       359.78549212597494       377.10970855892884       397.30051124071474
6.284890576103522         320.3911470827192        327.5975683624281        337.32279867842726       349.3492526269298        364.76666962282786       383.41298800590505       404.9413584709689
6.477829848514826         320.931729123566         329.0097767616386        339.80187223505516       353.05087080734734       369.7478471196808        389.7162674528812        412.5822057012231
6.67076912092613          321.4723111644129        330.42198516084903       342.28094579168305       356.7524889877649        374.7290246165337        396.01954689985735       420.2230529314772
6.8637083933374345        322.0128932052597        331.83419356005953       344.7600193483109        360.4541071681824        379.71020211338663       402.32282634683355       427.86390016173135
7.056647665748739         322.41970370103974       332.88804358306845       346.6274946772571        363.1949016461374        383.374020342698         407.0082289401927        433.5816957059903
7.249586938160043         322.8265141968198        333.94189360607743       348.4949700062034        365.9356961240923        387.0378385720093        411.69363153355187       439.2994912502493
7.442526210571347         323.23332469259987       334.99574362908635       350.36244533514963       368.67649060204724       390.70165680132067       416.37903412691105       445.0172867945082
7.635465482982651         323.64013518837993       336.04959365209527       352.22992066409586       371.4172850800022        394.365475030632         421.06443672027024       450.73508233876714
7.828404755393956         324.0742852410369        337.0925609978446        353.9928575322388        374.0183524239892        397.80988656254567       425.35113411422424       455.83223838856554
8.02134402780526          324.5084352936938        338.13552834359393       355.75579440038183       376.61941976797624       401.2542980944593        429.63783150817835       460.9293944383639
8.214283300216563         324.94258534635077       339.1784956893432        357.5187312685248        379.2204871119633        404.69870962637293       433.9245289021324        466.02655048816223
8.407222572627868         325.3767353990077        340.22146303509254       359.2816681366678        381.82155445595026       408.1431211582866        438.21122629608647       471.12370653796063
8.600161845039171         325.8276662807125        341.3530801540235        361.2115371258899        384.58207520225636       411.75217255547955       442.6819340035627        476.4027230879371
8.793101117450474         326.2785971624172        342.48469727295435       363.14140611511203       387.34259594856246       415.3612239526725        447.1526417110388        481.68173963791344
8.98604038986178          326.72952804412193       343.6163143918852        365.0712751043342        390.1031166948685        418.9702753498655        451.623349418515         486.9607561878899
9.178979662273083         327.1804589258267        344.74793151081616       367.00114409355626       392.8636374411746        422.5793267470585        456.0940571259912        492.2397727378663
9.371918934684388         327.8276585609681        346.19710087985766       369.2910504117918        396.035900046296         426.638166004524         460.9611569244775        497.891257469035
9.564858207095693         328.4748581961095        347.6462702488991        371.58095673002737       399.2081626514174        430.6970052619896        465.82825672296383       503.54274220020375
9.757797479506998         329.1220578312509        349.0954396179406        373.8708630482629        402.3804252565388        434.7558445194552        470.6953565214501        509.19422693137244
9.950736751918303         329.7692574663923        350.5446089869821        376.16076936649847       405.55268786166016       438.8146837769208        475.5624563199364        514.8457116625411
10.143676024329606        330.3409710978042        351.8281583346917        378.1680844930586        408.2533507345363        442.24713827342816       479.66872178726453       519.5738039303553
10.33661529674091         330.91268472921604       353.1117076824013        380.17539961961864       410.95401360741243       445.67959276993554       483.7749872545927        524.3018961981695
10.529554569152214        331.4843983606279        354.3952570301108        382.1827147461787        413.65467648028863       449.1120472664429        487.8812527219209        529.0299884659837
10.72249384156352         332.0561119920398        355.6788063778204        384.1900298727388        416.35533935316477       452.5445017629503        491.987518189249         533.7580807337979
10.915433113974824        332.4696786762628        356.59712461642647       385.6456064866522        418.3549588256687        455.1141835490733        495.06969601917655       537.35036090074
11.108372386386128        332.88324536048583       357.51544285503246       387.10118310056544       420.35457829817256       457.68386533519634       498.15187384910405       540.9426410676822
11.301311658797433        333.2968120447089        358.4337610936385        388.5567597144788        422.3541977706765        460.25354712131934       501.2340516790316        544.5349212346244
11.494250931208736        333.7103787289319        359.35207933224456       390.0123363283921        424.3538172431804        462.8232289074424        504.31622950895917       548.1272014015666
11.687190203620041        334.3417155273619        360.709957185863         392.12218855804684       427.2495392611909        466.48253042513136       508.6850354092842        553.1312315930726
11.880129476031343        334.9730523257918        362.0678350394815        394.2320407877016        430.1452612792013        470.1418319428203        513.0538413096092        558.1352617845787
12.073068748442648        335.6043891242217        363.4257128931           396.3418930173563        433.0409832972117        473.8011334605092        517.4226472099343        563.1392919760847
12.26600802085395         336.2357259226517        364.78359074671846       398.45174524701105       435.9367053152222        477.4604349781982        521.7914531102593        568.1433221675907
12.458947293265256        336.7791564620959        365.9396096255295        400.21620981880903       438.2993510035737        480.4009287682678        525.2728566623842        572.1040401445802
12.651886565676563        337.3225870015401        367.09562850434054       401.9806743906071        440.6619966919253        483.34142255833746       528.754260214509         576.0647581215696
12.844825838087868        337.8660175409843        368.2516473831515        403.7451389624051        443.0246423802768        486.2819163484071        532.2356637666339        580.025476098559
13.037765110499173        338.4094480804285        369.40766626196256       405.50960353420317       445.3872880686284        489.22241013847673       535.7170673187587        583.9861940755485
13.230704382910476        338.914650781103         370.47382933982664       407.0866495419486        447.44829373557286       491.74403340666237       538.6963878872657        587.4108154033773
13.42364365532178         339.4198534817775        371.53999241769066       408.663695549694         449.5092994025173        494.26565667484806       541.6757084557726        590.8354367312063
13.616582927733083        339.92505618245207       372.60615549555473       410.2407415574394        451.57030506946177       496.7872799430337        544.6550290242795        594.2600580590351
13.809522200144386        340.43025888312656       373.6723185734188        411.8177875651848        453.63131073640625       499.3089032112194        547.6343495927865        597.6846793868641
14.00246147255569         340.99836309967486       374.9077291479955        413.69019220320035       456.0964745266107        502.30369496832964       551.1089796580633        601.5876956593667
14.195400744966994        341.5664673162231        376.14313972257224       415.56259684121596       458.56163831681505       505.29848672543983       554.58360972334          605.4907119318691
14.3883400173783          342.13457153277136       377.378550297149         417.4350014792315        461.0268021070194        508.29327848255          558.0582397886167        609.3937282043717
14.581279289789604        342.70267574931967       378.6139608717257        419.30740611724707       463.49196589722385       511.2880702396602        561.5328698538934        613.2967444768742
14.774218562200907        343.1573261939508        379.57948058245745       420.7575189232209        465.3887065399503        513.574311628422         564.1573273287663        616.2304421638881
14.96715783461221         343.61197663858195       380.54500029318933       422.20763172919465       467.2854471826768        515.8605530171837        566.7817848036391        619.1641398509021
15.160097107023516        344.0666270832131        381.51052000392116       423.6577445351685        469.1821878254033        518.1467944059456        569.406242278512         622.0978375379159
15.353036379434819        344.52127752784423       382.476039714653         425.1078573411423        471.0789284681298        520.4330357947074        572.0306997533849        625.0315352249298
15.545975651846126        344.93339672938873       383.324475061118         426.33145017550436       472.6549735703263        522.3601792500328        574.286333083454         627.5669218490239
15.73891492425743         345.3455159309332        384.1729104075829        427.5550430098665        474.23101867252285       524.2873227053583        576.5419664135231        630.102308473118
15.931854196668736        345.7576351324776        385.0213457540479        428.7786358442286        475.8070637747193        526.2144661606836        578.7975997435922        632.6376950972121
16.12479346908004         346.16975433402206       385.86978110051285       430.00222867859065       477.38310887691586       528.1416096160091        581.0532330736613        635.1730817213062
16.317732741491344        346.6331616404881        386.83443800929444       431.44663340302327       479.2690788079352        530.4084258816542        583.6282132763396        638.0159243134199
16.510672013902646        347.09656894695405       387.799094918076         432.89103812745583       481.15504873895463       532.6752421472995        586.203193479018         640.8587669055336
16.703611286313947        347.55997625342          388.7637518268576        434.3354428518884        483.041018669974         534.9420584129448        588.7781736816962        643.7016094976473
16.896550558725252        348.02338355988604       389.72840873563916       435.779847576321         484.92698860099335       537.2088746785901        591.3531538843746        646.544452089761
17.089489831136557        348.5055746399072        390.6892190732343        437.19171915041215       486.77811445736563       539.4665087539628        593.9681755909153        649.4460213460623
17.282429103547862        348.98776571992835       391.6500294108296        438.6035907245034        488.62924031373785       541.7241428293355        596.5831972974561        652.3475906023634
17.475368375959167        349.46995679994956       392.6108397484248        440.01546229859457       490.4803661701101        543.9817769047081        599.1982190039968        655.2491598586647
17.668307648370472        349.9521478799707        393.57165008602          441.4273338726858        492.33149202648235       546.2394109800808        601.8132407105375        658.150729114966
17.861246920781774        350.3991268242264        394.4351234313281        442.66291966746235       493.91957228166683       548.1139468567154        603.9209774728583        660.4724139198642
18.05418619319308         350.84610576848206       395.29859677663615       443.89850546223886       495.50765253685137       549.98848273335          606.0287142351793        662.7940987247623
18.24712546560438         351.2930847127377        396.1620701219443        445.13409125701537       497.09573279203585       551.8630186099846        608.1364509975003        665.1157835296606
18.440064738015682        351.7400636569934        397.02554346725236       446.36967705179194       498.6838130472204        553.7375544866192        610.2441877598212        667.4374683345587
18.633004010426987        352.1514802225999        397.82568627751635       447.4906099627069        500.0847617025719        555.3686567147392        612.0864974873269        669.4780415702519
18.825943282838292        352.56289678820644       398.62582908778035       448.6115428736219        501.48571035792344       556.9997589428594        613.9288072148327        671.5186148059449
19.0188825552496          352.97431335381293       399.42597189804434       449.73247578453686       502.886659013275         558.6308611709795        615.7711169423384        673.559188041638
19.211821827660906        353.3857299194195        400.22611470830833       450.85340869545183       504.2876076686265        560.2619633990996        617.6134266698441        675.599761277331
19.40476110007221         353.85282129542185       401.11658376896247       452.1026898437119        505.89220738255915       562.2151587095591        619.921504044561         678.2105041444045
19.597700372483512        354.31991267142416       402.0070528296166        453.35197099197205       507.49680709649186       564.1683540200186        622.2295814192778        680.8212470114779
19.790639644894817        354.78700404742654       402.89752189027075       454.6012521402322        509.1014068104246        566.121549330478         624.5376587939948        683.4319898785515
19.983578917306122        355.25409542342885       403.7879909509249        455.8505332884923        510.70600652435724       568.0747446409375        626.8457361687116        686.0427327456249
20.176518189717427        355.5581931499616        404.35107899290267       456.66930110456667       511.78998550141864       569.390449721607         628.3506253048688        687.6989913357573
20.36945746212873         355.8622908764944        404.9141670348805        457.488068920641         512.87396447848          570.7061548022764        629.8555144410259        689.3552499258899
20.56239673454003         356.16638860302714       405.47725507685834       458.30683673671535       513.9579434555413        572.0218598829458        631.3604035771831        691.0115085160223
20.755336006951335        356.47048632955995       406.0403431188362        459.1256045527897        515.0419224326027        573.3375649636153        632.8652927133403        692.6677671061548
20.94827527936264         356.86842761400106       406.7893083313726        460.1775151935263        516.3896546315946        574.9561876256008        634.7224862714936        694.7200592993012
21.141214551773945        357.2663688984421        407.538273543909         461.22942583426294       517.7373868305865        576.5748102875864        636.5796798296469        696.7723514924476
21.33415382418525         357.66431018288324       408.28723875644533       462.28133647499953       519.0851190295783        578.1934329495718        638.4368733878001        698.824643685594
21.52709309659656         358.0622514673243        409.03620396898174       463.3332471157362        520.4328512285701        579.8120556115574        640.2940669459534        700.8769358787404
21.72003236900786         358.42870212814285       409.7515832941917        464.3300271558454        521.695550938097         581.3275758261159        642.0304802975558        702.79362827478
21.912971641419166        358.79515278896145       410.46696261940156       465.32680719595464       522.9582506476238        582.8430960406743        643.7668936491582        704.7103206708196
22.105910913830467        359.16160344978005       411.1823419446115        466.3235872360639        524.2209503571507        584.3586162552326        645.5033070007605        706.6270130668593
22.29885018624177         359.52805411059865       411.8977212698214        467.3203672761731        525.4836500666776        585.8741364697911        647.2397203523628        708.5437054628989
22.491789458653074        359.923713374348         412.6459662981482        468.4039245074714        526.8700632621709        587.5175641539923        649.0996441367587        710.5735106883089
22.68472873106438         360.3193726380973        413.3942113264751        469.4874817387697        528.2564764576642        589.1609918381937        650.9595679211545        712.603315913719
22.87766800347568         360.7150319018466        414.142456354802         470.571038970068         529.6428896531576        590.8044195223949        652.8194917055503        714.6331211391291
23.07060727588698         361.11069116559594       414.8907013831289        471.6545962013663        531.0293028486509        592.4478472065963        654.6794154899461        716.6629263645392
23.263546548298287        361.442776875296         415.5189871046194        472.5562606416387        532.1715429781716        593.8002488296918        656.2008563401421        718.3230379278916
23.45648582070959         361.7748625849961        416.1472728261099        473.457925081911         533.3137831076922        595.1526504527873        657.7222971903382        719.9831494912441
23.649425093120897        362.1069482946961        416.77555854760044       474.35958952218334       534.4560232372128        596.5050520758828        659.2437380405343        721.6432610545966
23.8423643655322          362.43903400439615       417.40384426909094       475.2612539624557        535.5982633667335        597.8574536989782        660.7651788907302        723.303372617949
24.035303637943503        362.80874286600243       418.0860628436446        476.226480105577         536.8020697755435        599.2565626372758        662.3110176238235        724.9455907930405
24.22824291035481         363.17845172760866       418.7682814181983        477.1917062486982        538.0058761843535        600.6556715755733        663.8568563569168        726.5878089681321
24.42118218276611         363.54816058921494       419.45049999275193       478.1569323918195        539.2096825931635        602.0547805138708        665.40269509001          728.2300271432238
24.61412145517741         363.9178694508212        420.13271856730563       479.12215853494075       540.4134890019735        603.4538894521683        666.9485338231033        729.8722453183153
24.807060727588716        364.32622194832805       420.8902980090957        480.18396880216676       541.738155739275         604.997123791587         668.6752097388337        731.7428395488496
25.00000000000002         364.73457444583494       421.6478774508858        481.2457790693928        543.0628224765767        606.5403581310059        670.401885654564         733.613433779384
25.192939272411326        365.1429269433419        422.4054568926759        482.3075893366189        544.3874892138782        608.0835924704247        672.1285615702944        735.4840280099183
25.38587854482263         365.55127944084876       423.16303633446597       483.36939960384495       545.7121559511797        609.6268268098435        673.8552374860249        737.3546222404527
25.578817817233936        365.8587123507515        423.73077954278085       484.1603068887573        546.6910396497042        610.7545918543259        675.0949323191762        738.6677046882114
25.77175708964524         366.16614526065416       424.2985227510957        484.9512141736697        547.6699233482286        611.8823568988083        676.3346271523277        739.9807871359701
25.96469636205655         366.4735781705569        424.86626595941055       485.7421214585821        548.6488070467532        613.0101219432908        677.5743219854792        741.2938695837288
26.157635634467855        366.7810110804596        425.43400916772543       486.53302874349447       549.6276907452776        614.1378869877732        678.8140168186305        742.6069520314875
26.35057490687916         367.0565918624884        425.9473612489528        487.2636981258027        550.5431079476637        615.2114213851377        680.0126460850546        743.9031781173691
26.54351417929046         367.33217264451724       426.46071333018017       487.99436750811094       551.4585251500496        616.284955782502         681.2112753514787        745.1994042032509
26.736453451701763        367.6077534265461        426.9740654114075        488.7250368904192        552.3739423524355        617.3584901798665        682.4099046179026        746.4956302891325
26.929392724113068        367.88333420857487       427.48741749263485       489.4557062727274        553.2893595548215        618.432024577231         683.6085338843267        747.7918563750142
27.12233199652437         368.1412907068591        427.95896744428615       490.10381658818295       554.0735383403762        619.3347517249001        684.6027459869314        748.8479658192794
27.315271268935675        368.3992472051434        428.4305173959374        490.7519269036385        554.857717125931         620.2374788725691        685.5969580895361        749.9040752635447
27.50821054134698         368.6572037034277        428.9020673475887        491.400037219094         555.6418959114857        621.1402060202381        686.5911701921408        750.9601847078098
27.70114981375828         368.91516020171196       429.37361729924          492.0481475345495        556.4260746970403        622.0429331679072        687.5853822947455        752.016294152075
27.894089086169586        369.1872376207233        429.8564384343302        492.7270883117277        557.2701470629224        623.0200450953314        688.6688493486163        753.1749738800779
28.087028358580888        369.45931503973463       430.33925956942034       493.40602908890594       558.1142194288044        623.9971570227555        689.7523164024872        754.3336536080806
28.279967630992193        369.731392458746         430.82208070451054       494.0849698660842        558.9582917946864        624.9742689501795        690.8357834563581        755.4923333360833
28.472906903403498        370.0034698777573        431.3049018396007        494.76391064326236       559.8023641605685        625.9513808776037        691.9192505102288        756.6510130640861
28.665846175814803        370.3006113833394        431.8427892529873        495.5339066711489        560.7585638559063        627.0193922188391        693.0659648214889        757.8548390343228
28.858785448226108        370.5977528889215        432.3806766663739        496.3039026990354        561.7147635512442        628.0874035600746        694.2126791327489        759.0586650045595